2002
# CELL(abcABC):   55.06662    55.06662    55.06662    90.00000    90.00000    90.00000  Step:         100  Bead:       0 x_centroid{angstrom}  cell{atomic_unit}
       C  1.38902e+01  2.41707e+01  6.37235e+00
       H  1.37686e+01  2.33710e+01  5.62908e+00
       H  1.45701e+01  2.38253e+01  7.16234e+00
       H  1.29167e+01  2.44247e+01  6.81283e+00
       H  1.43108e+01  2.50609e+01  5.88443e+00
       C  1.86368e+01  2.05705e-01  2.57311e+01
       H  1.94243e+01  8.69217e-01  2.53489e+01
       H  1.83717e+01  4.94364e-01  2.67559e+01
       H  1.89983e+01 -8.31136e-01  2.57350e+01
       H  1.77518e+01  2.89727e-01  2.50857e+01
       C  5.90004e+00  1.35785e+01  1.93336e+01
       H  5.13388e+00  1.29952e+01  1.88067e+01
       H  6.46896e+00  1.41763e+01  1.86096e+01
       H  6.58132e+00  1.28950e+01  1.98584e+01
       H  5.41408e+00  1.42436e+01  2.00604e+01
       C  1.05486e+01  2.53403e+01  2.22769e+01
       H  1.05551e+01  2.44121e+01  2.28636e+01
       H  1.05150e+01  2.50965e+01  2.12073e+01
       H  1.14589e+01  2.59155e+01  2.24921e+01
       H  9.66584e+00  2.59374e+01  2.25412e+01
       C  2.89722e+01  1.16672e+01  1.29155e+01
       H  2.97528e+01  1.23821e+01  1.26218e+01
       H  2.87966e+01  1.09581e+01  1.20954e+01
       H  2.80431e+01  1.22101e+01  1.31355e+01
       H  2.92942e+01  1.11162e+01  1.38094e+01
       C  1.60805e+01  2.38879e+01  2.26791e+00
       H  1.69811e+01  2.32891e+01  2.45959e+00
       H  1.53211e+01  2.32568e+01  1.78640e+00
       H  1.63358e+01  2.47294e+01  1.60974e+00
       H  1.56847e+01  2.42757e+01  3.21646e+00
       C  1.98703e+01  3.72361e+00  6.92544e+00
       H  2.06784e+01  3.95276e+00  7.63320e+00
       H  2.02974e+01  3.28968e+00  6.01139e+00
       H  1.93295e+01  4.64636e+00  6.67552e+00
       H  1.91769e+01  3.00365e+00  7.38079e+00
       C  1.93457e+01  1.46589e+01  2.00941e+01
       H  1.96774e+01  1.54291e+01  2.08029e+01
       H  1.94385e+01  1.50328e+01  1.90654e+01
       H  1.82950e+01  1.44127e+01  2.02988e+01
       H  1.99710e+01  1.37633e+01  2.02126e+01
       C  2.54343e+01  1.85510e-01  7.50976e+00
       H  2.56856e+01  6.28993e-01  8.48265e+00
       H  2.45231e+01 -4.19360e-01  7.60619e+00
       H  2.62642e+01 -4.48770e-01  7.17034e+00
       H  2.52630e+01  9.82369e-01  6.77608e+00
       C  1.66480e+01  2.44346e+01  2.03799e+01
       H  1.58594e+01  2.37658e+01  2.00094e+01
       H  1.75599e+01  2.42911e+01  1.97854e+01
       H  1.68585e+01  2.42026e+01  2.14319e+01
       H  1.63152e+01  2.54772e+01  2.02921e+01
       C  1.08032e+01  1.77509e+00  1.09968e+01
       H  1.09539e+01  2.86288e+00  1.09665e+01
       H  1.01212e+01  1.52374e+00  1.18203e+01
       H  1.17689e+01  1.27591e+00  1.11545e+01
       H  1.03694e+01  1.43759e+00  1.00457e+01
       C  2.43865e+01  9.24800e+00  1.61747e+00
       H  2.38467e+01  9.52325e+00  7.01166e-01
       H  2.38831e+01  8.39692e+00  2.09504e+00
       H  2.43959e+01  1.01037e+01  2.30465e+00
       H  2.54176e+01  8.96626e+00  1.36450e+00
       C  4.47022e+00  1.83170e+00  6.96225e+00
       H  5.13339e+00  1.26293e+00  6.29642e+00
       H  3.49178e+00  1.33554e+00  7.01638e+00
       H  4.34390e+00  2.84972e+00  6.56981e+00
       H  4.91274e+00  1.88129e+00  7.96648e+00
       C  2.04709e+01  3.11069e-01  1.07809e+01
       H  2.08789e+01  1.09756e+00  1.01328e+01
       H  2.10888e+01 -5.92323e-01  1.06941e+01
       H  1.94433e+01  8.03987e-02  1.04692e+01
       H  2.04733e+01  6.59380e-01  1.18226e+01
       C  8.66196e+00  2.53482e+01  2.99314e+00
       H  9.37131e+00  2.47074e+01  3.53455e+00
       H  8.62304e+00  2.63376e+01  3.46854e+00
       H  7.66550e+00  2.48869e+01  3.01865e+00
       H  8.98985e+00  2.54625e+01  1.95103e+00
       C  2.51670e+01  2.12527e+01  4.72240e+00
       H  2.47231e+01  2.16747e+01  5.63407e+00
       H  2.45671e+01  2.15498e+01  3.85172e+00
       H  2.51880e+01  2.01568e+01  4.79399e+00
       H  2.61917e+01  2.16325e+01  4.60993e+00
       C  7.66814e-01  6.54435e+00  2.47522e+01
       H  5.18123e-01  6.61182e+00  2.36845e+01
       H  8.35079e-01  7.55572e+00  2.51758e+01
       H  1.73121e+00  6.03267e+00  2.48737e+01
       H -1.45318e-02  5.97729e+00  2.52761e+01
       C  2.15542e+01  9.24055e+00  1.97412e+01
       H  2.12916e+01  8.17573e+00  1.96825e+01
       H  2.06400e+01  9.84777e+00  1.97026e+01
       H  2.22051e+01  9.50321e+00  1.88970e+01
       H  2.20839e+01  9.43458e+00  2.06831e+01
       C  2.68930e+01  1.63035e+01  2.40837e+01
       H  2.75531e+01  1.67182e+01  2.33101e+01
       H  2.65340e+01  1.71140e+01  2.47319e+01
       H  2.74454e+01  1.55701e+01  2.46862e+01
       H  2.60359e+01  1.58112e+01  2.36060e+01
       C  5.55007e-01  1.80265e+01  1.01191e+01
       H  3.39962e-02  1.72709e+01  9.51547e+00
       H  5.13517e-01  1.77451e+01  1.11800e+01
       H  7.09717e-02  1.90027e+01  9.98138e+00
       H  1.60385e+00  1.80880e+01  9.80074e+00
       C  8.88617e+00  1.72515e+01  6.34844e+00
       H  9.03526e+00  1.83030e+01  6.06831e+00
       H  9.83026e+00  1.67027e+01  6.23487e+00
       H  8.12273e+00  1.68002e+01  5.70116e+00
       H  8.55953e+00  1.71980e+01  7.39475e+00
       C  7.89807e+00  7.95578e+00  1.58279e+01
       H  7.75931e+00  7.17124e+00  1.65827e+01
       H  7.94817e+00  7.50077e+00  1.48292e+01
       H  8.83362e+00  8.49369e+00  1.60325e+01
       H  7.05417e+00  8.65754e+00  1.58703e+01
       C  8.18411e+00  2.28658e+01  2.82314e+01
       H  8.44291e+00  2.32397e+01  2.72314e+01
       H  8.88723e+00  2.20718e+01  2.85176e+01
       H  7.16265e+00  2.24624e+01  2.82190e+01
       H  8.24446e+00  2.36888e+01  2.89564e+01
       C  2.25970e+01  1.07922e+01  1.60287e+01
       H  2.33733e+01  1.05065e+01  1.53081e+01
       H  2.22698e+01  1.18184e+01  1.58181e+01
       H  2.30034e+01  1.07363e+01  1.70468e+01
       H  2.17445e+01  1.01073e+01  1.59362e+01
       C  2.23407e+01  1.91994e+01  6.56291e+00
       H  2.23746e+01  1.85217e+01  7.42646e+00
       H  2.30327e+01  2.00359e+01  6.72555e+00
       H  2.13199e+01  1.95856e+01  6.44060e+00
       H  2.26393e+01  1.86544e+01  5.65753e+00
       C  2.40540e+01  2.82949e+01  1.14539e+01
       H  2.37928e+01  2.83155e+01  1.03875e+01
       H  2.31391e+01  2.83694e+01  1.20565e+01
       H  2.47172e+01  2.91393e+01  1.16853e+01
       H  2.45670e+01  2.73526e+01  1.16868e+01
       C  1.56216e+01  5.85916e+00  5.32616e+00
       H  1.52650e+01  6.80214e+00  5.76258e+00
       H  1.63819e+01  5.41630e+00  5.98313e+00
       H  1.60608e+01  6.05393e+00  4.33938e+00
       H  1.47803e+01  5.16225e+00  5.21571e+00
       C  3.67381e+00  7.71174e+00  6.78908e+00
       H  4.15629e+00  7.38318e+00  7.71933e+00
       H  3.61119e+00  6.86661e+00  6.09134e+00
       H  4.26694e+00  8.51467e+00  6.33143e+00
       H  2.66292e+00  8.08124e+00  7.00922e+00
       C  2.53466e+01  3.55386e+00  3.03581e+00
       H  2.43460e+01  3.23349e+00  3.35647e+00
       H  2.60948e+01  2.84758e+00  3.41917e+00
       H  2.55521e+01  4.55982e+00  3.42505e+00
       H  2.53927e+01  3.57623e+00  1.93962e+00
       C  1.58166e+01  1.86069e+01  4.11083e+00
       H  1.60495e+01  1.76235e+01  4.54049e+00
       H  1.51529e+01  1.84770e+01  3.24599e+00
       H  1.67453e+01  1.90972e+01  3.78921e+00
       H  1.53167e+01  1.92284e+01  4.86598e+00
       C  1.41503e+01  2.65422e+01  1.64282e+01
       H  1.42027e+01  2.54502e+01  1.63211e+01
       H  1.32410e+01  2.69166e+01  1.59389e+01
       H  1.50327e+01  2.69996e+01  1.59601e+01
       H  1.41229e+01  2.68025e+01  1.74949e+01
       C  2.08056e+01  4.08193e+00  1.85416e+01
       H  2.18305e+01  3.86512e+00  1.82120e+01
       H  2.07756e+01  5.07260e+00  1.90150e+01
       H  2.04859e+01  3.32050e+00  1.92658e+01
       H  2.01308e+01  4.06942e+00  1.76749e+01
       C  5.02994e+00  1.32698e+01  5.06921e+00
       H  4.16845e+00  1.39441e+01  5.16782e+00
       H  4.70822e+00  1.22325e+01  5.22926e+00
       H  5.79218e+00  1.35346e+01  5.81282e+00
       H  5.45604e+00  1.33648e+01  4.06214e+00
       C  5.73094e+00  3.78641e+00  1.97047e+01
       H  4.94234e+00  3.17427e+00  2.01629e+01
       H  5.43612e+00  4.84436e+00  1.97312e+01
       H  5.87858e+00  3.47319e+00  1.86623e+01
       H  6.66828e+00  3.65437e+00  2.02619e+01
       C  1.15553e+01  8.84247e+00  1.87952e+01
       H  1.11820e+01  9.45168e+00  1.79615e+01
       H  1.07777e+01  8.75498e+00  1.95657e+01
       H  1.24431e+01  9.32210e+00  1.92280e+01
       H  1.18215e+01  7.84243e+00  1.84273e+01
       C  2.55173e+01  5.80878e+00  9.06464e+00
       H  2.47176e+01  5.13715e+00  9.40232e+00
       H  2.58650e+01  6.40912e+00  9.91281e+00
       H  2.51334e+01  6.47187e+00  8.27723e+00
       H  2.63542e+01  5.21574e+00  8.67301e+00
       C  8.19429e+00  2.40303e+01  6.47415e+00
       H  7.89948e+00  2.34423e+01  5.59455e+00
       H  7.90345e+00  2.34941e+01  7.38705e+00
       H  7.69246e+00  2.50067e+01  6.44262e+00
       H  9.28261e+00  2.41783e+01  6.47183e+00
       C  2.74246e+01  1.66203e+01  2.77692e+01
       H  2.77870e+01  1.71946e+01  2.69061e+01
       H  2.77682e+01  1.70953e+01  2.86981e+01
       H  2.78190e+01  1.55962e+01  2.77174e+01
       H  2.63262e+01  1.65971e+01  2.77541e+01
       C  2.10113e+01  2.37275e+01  1.19974e+01
       H  2.08927e+01  2.44233e+01  1.28389e+01
       H  2.11863e+01  2.42953e+01  1.10747e+01
       H  2.00996e+01  2.31244e+01  1.18891e+01
       H  2.18689e+01  2.30683e+01  1.21872e+01
       C  1.66439e+01  1.87073e+01  1.75480e+01
       H  1.59694e+01  1.87299e+01  1.84141e+01
       H  1.71946e+01  1.96545e+01  1.74888e+01
       H  1.60575e+01  1.85664e+01  1.66303e+01
       H  1.73576e+01  1.78805e+01  1.76616e+01
       C  9.35700e+00  1.41973e+01  2.03479e+01
       H  9.63265e+00  1.42376e+01  1.92858e+01
       H  9.86549e+00  1.50050e+01  2.08917e+01
       H  9.65417e+00  1.32228e+01  2.07565e+01
       H  8.27253e+00  1.43241e+01  2.04548e+01
       C  5.23490e+00  2.71965e+01  2.69184e+00
       H  4.78305e+00  2.77635e+01  1.86668e+00
       H  4.71734e+00  2.74395e+01  3.62982e+00
       H  6.29694e+00  2.74615e+01  2.78256e+00
       H  5.14214e+00  2.61209e+01  2.48924e+00
       C  2.92145e+00  2.02461e+01  7.15299e+00
       H  2.51407e+00  1.95968e+01  6.36498e+00
       H  2.82238e+00  2.12982e+01  6.85464e+00
       H  3.98174e+00  2.00076e+01  7.30855e+00
       H  2.37098e+00  2.00812e+01  8.08877e+00
       C  1.95115e+01  6.93596e+00  1.30167e+01
       H  1.97206e+01  6.05252e+00  1.36353e+01
       H  1.85475e+01  7.36913e+00  1.33138e+01
       H  1.94706e+01  6.64135e+00  1.19597e+01
       H  2.03049e+01  7.68242e+00  1.31563e+01
       C  1.26130e+01  2.20925e+01  2.34007e+01
       H  1.25901e+01  2.29704e+01  2.40589e+01
       H  1.36408e+01  2.17113e+01  2.33378e+01
       H  1.22623e+01  2.23786e+01  2.24000e+01
       H  1.19592e+01  2.13120e+01  2.38102e+01
       C  2.53267e+01  1.31776e+01  4.94538e+00
       H  2.47037e+01  1.29636e+01  4.06623e+00
       H  2.46833e+01  1.34248e+01  5.80050e+00
       H  2.59856e+01  1.40289e+01  4.72742e+00
       H  2.59349e+01  1.22956e+01  5.18792e+00
       C  1.60408e+00  4.81521e+00  2.79012e+01
       H  1.54184e+00  4.15644e+00  2.87782e+01
       H  1.66216e+00  4.20861e+00  2.69874e+01
       H  2.50121e+00  5.44455e+00  2.79778e+01
       H  7.10812e-01  5.45262e+00  2.78596e+01
       C  3.47982e+00  1.12802e+01  2.49912e+01
       H  3.57601e+00  1.23663e+01  2.51235e+01
       H  4.36338e+00  1.08943e+01  2.44647e+01
       H  2.57652e+00  1.10635e+01  2.44051e+01
       H  3.40039e+00  1.07961e+01  2.59738e+01
       C  1.58293e+01  1.12678e+01  1.42514e+01
       H  1.51825e+01  1.05252e+01  1.37656e+01
       H  1.52117e+01  1.20565e+01  1.46999e+01
       H  1.65018e+01  1.17163e+01  1.35089e+01
       H  1.64205e+01  1.07787e+01  1.50362e+01
       C  1.36412e+01  2.05384e+01  7.70036e+00
       H  1.40661e+01  2.14171e+01  8.20394e+00
       H  1.41732e+01  1.96344e+01  8.02546e+00
       H  1.37480e+01  2.06568e+01  6.61380e+00
       H  1.25781e+01  2.04430e+01  7.96138e+00
       C  1.28767e+01  6.11827e+00  7.90083e+00
       H  1.31850e+01  5.44325e+00  7.09173e+00
       H  1.37246e+01  6.75201e+00  8.19523e+00
       H  1.25458e+01  5.52383e+00  8.76312e+00
       H  1.20495e+01  6.75168e+00  7.55326e+00
       C  2.08141e+01  8.57088e+00  1.60455e+00
       H  2.01054e+01  7.89725e+00  1.10565e+00
       H  2.15127e+01  7.98069e+00  2.21243e+00
       H  2.02657e+01  9.26647e+00  2.25205e+00
       H  2.13696e+01  9.14149e+00  8.48417e-01
       C  4.90503e+00  5.61962e+00  1.67182e+01
       H  5.45462e+00  4.84405e+00  1.61692e+01
       H  4.13718e+00  5.14822e+00  1.73445e+01
       H  4.42679e+00  6.30280e+00  1.60041e+01
       H  5.59896e+00  6.18195e+00  1.73569e+01
       C  1.89361e+01  1.78528e+01  2.76823e+01
       H  1.85831e+01  1.88510e+01  2.79728e+01
       H  1.85090e+01  1.71015e+01  2.83602e+01
       H  2.00322e+01  1.78202e+01  2.77440e+01
       H  1.86184e+01  1.76381e+01  2.66529e+01
       C  8.41308e+00  4.25837e+00  1.57240e+01
       H  7.99293e+00  4.96076e+00  1.49915e+01
       H  9.05879e+00  4.80506e+00  1.64250e+01
       H  9.00510e+00  3.49550e+00  1.52010e+01
       H  7.59890e+00  3.77265e+00  1.62778e+01
       C  9.95045e+00  9.81627e+00  1.08509e+01
       H  9.01051e+00  1.03453e+01  1.06542e+01
       H  1.07026e+01  1.05292e+01  1.12140e+01
       H  1.03032e+01  9.34769e+00  9.92332e+00
       H  9.77590e+00  9.03879e+00  1.16066e+01
       C  1.56252e+00  1.89122e+01  2.77858e+01
       H  7.27289e-01  1.95982e+01  2.79818e+01
       H  1.33484e+00  1.83070e+01  2.68979e+01
       H  1.70872e+00  1.82549e+01  2.86533e+01
       H  2.48050e+00  1.94898e+01  2.76113e+01
       C  1.81076e+01  3.17870e+00  3.67634e+00
       H  1.83142e+01  2.22115e+00  4.17351e+00
       H  1.86978e+01  3.97461e+00  4.14995e+00
       H  1.70383e+01  3.41392e+00  3.76561e+00
       H  1.83818e+01  3.10582e+00  2.61549e+00
       C  2.78491e+01  6.85893e+00  2.40303e+00
       H  2.81371e+01  7.87118e+00  2.71674e+00
       H  2.87466e+01  6.22915e+00  2.33666e+00
       H  2.73587e+01  6.90482e+00  1.42142e+00
       H  2.71541e+01  6.43021e+00  3.13733e+00
       C  1.04666e+01  2.28488e+01  9.79170e+00
       H  1.11414e+01  2.21600e+01  9.26596e+00
       H  1.08103e+01  2.38815e+01  9.64512e+00
       H  1.04631e+01  2.26124e+01  1.08643e+01
       H  9.45001e+00  2.27427e+01  9.39204e+00
       C  2.58957e+01  1.08361e+01  1.72564e+01
       H  2.52676e+01  1.02479e+01  1.79391e+01
       H  2.54411e+01  1.08393e+01  1.62584e+01
       H  2.68979e+01  1.03900e+01  1.72017e+01
       H  2.59714e+01  1.18689e+01  1.76217e+01
       C  2.05955e+01  8.40417e+00  9.41755e+00
       H  2.14236e+01  8.46204e+00  8.69831e+00
       H  2.09506e+01  8.70206e+00  1.04130e+01
       H  2.02140e+01  7.37510e+00  9.45788e+00
       H  1.97905e+01  9.08188e+00  9.10380e+00
       C  1.95719e+01  1.85014e+01  2.09675e+01
       H  1.93566e+01  1.80462e+01  1.99913e+01
       H  2.02945e+01  1.93191e+01  2.08414e+01
       H  1.99886e+01  1.77422e+01  2.16417e+01
       H  1.86439e+01  1.88960e+01  2.14011e+01
       C  1.46561e+01  2.84377e+01  2.30644e+01
       H  1.42130e+01  2.79121e+01  2.39213e+01
       H  1.43116e+01  2.94804e+01  2.30566e+01
       H  1.43469e+01  2.79445e+01  2.21327e+01
       H  1.57512e+01  2.84111e+01  2.31476e+01
       C  2.45195e+00  9.07876e+00  1.10961e+01
       H  2.15538e+00  1.00848e+01  1.14205e+01
       H  3.03323e+00  8.59880e+00  1.18947e+01
       H  3.06786e+00  9.15186e+00  1.01895e+01
       H  1.55585e+00  8.48007e+00  1.08842e+01
       C  1.14462e+01  2.27988e+01  2.67195e+01
       H  1.12745e+01  2.18713e+01  2.72819e+01
       H  1.12033e+01  2.36630e+01  2.73520e+01
       H  1.08047e+01  2.28087e+01  2.58276e+01
       H  1.25013e+01  2.28524e+01  2.64191e+01
       C  2.66197e+01  2.32857e+01  2.42117e+01
       H  2.75071e+01  2.32010e+01  2.48538e+01
       H  2.67191e+01  2.26027e+01  2.33571e+01
       H  2.65306e+01  2.43193e+01  2.38512e+01
       H  2.57220e+01  2.30194e+01  2.47859e+01
       C  2.49670e+01  2.03772e+01  1.19213e+01
       H  2.59287e+01  2.02066e+01  1.14213e+01
       H  2.50197e+01  2.00085e+01  1.29542e+01
       H  2.41801e+01  1.98344e+01  1.13835e+01
       H  2.47356e+01  2.14501e+01  1.19235e+01
       C  1.54065e+01  1.62313e+01  2.76043e+01
       H  1.59968e+01  1.54965e+01  2.70403e+01
       H  1.60682e+01  1.70249e+01  2.79757e+01
       H  1.49166e+01  1.57362e+01  2.84535e+01
       H  1.46439e+01  1.66702e+01  2.69469e+01
       C  1.61585e+00  1.19143e+01  1.72979e+01
       H  1.19290e+00  1.11848e+01  1.65937e+01
       H  1.62504e+00  1.14836e+01  1.83074e+01
       H  1.00558e+00  1.28277e+01  1.72885e+01
       H  2.64437e+00  1.21598e+01  1.70042e+01
       C  2.35080e+01  2.10232e+01  1.94296e+01
       H  2.40793e+01  2.01082e+01  1.96362e+01
       H  2.33513e+01  2.11205e+01  1.83467e+01
       H  2.40650e+01  2.18952e+01  1.97980e+01
       H  2.25359e+01  2.09699e+01  1.99386e+01
       C  4.32243e+00  1.14970e+01  2.15123e+01
       H  3.38545e+00  1.12980e+01  2.20479e+01
       H  4.12421e+00  1.15206e+01  2.04330e+01
       H  5.05021e+00  1.07053e+01  2.17359e+01
       H  4.72793e+00  1.24659e+01  2.18310e+01
       C  6.68348e+00  2.91643e+00  1.14154e+01
       H  6.24259e+00  3.88505e+00  1.16867e+01
       H  6.89607e+00  2.89971e+00  1.03381e+01
       H  5.97797e+00  2.11119e+00  1.16616e+01
       H  7.61737e+00  2.76978e+00  1.19750e+01
       C  2.22641e+01  8.97436e+00  2.36083e+01
       H  2.25971e+01  8.06383e+00  2.30912e+01
       H  2.18250e+01  8.70528e+00  2.45782e+01
       H  2.15088e+01  9.48813e+00  2.29985e+01
       H  2.31227e+01  9.64007e+00  2.37677e+01
       C  1.63542e+01  1.69798e+01  2.09495e+01
       H  1.67364e+01  1.74294e+01  2.18745e+01
       H  1.71685e+01  1.69163e+01  2.02155e+01
       H  1.55455e+01  1.76009e+01  2.05429e+01
       H  1.59681e+01  1.59744e+01  2.11648e+01
       C  6.22394e+00  1.57117e+01  1.25257e+01
       H  5.37060e+00  1.59008e+01  1.18608e+01
       H  6.10623e+00  1.47342e+01  1.30106e+01
       H  6.27643e+00  1.64997e+01  1.32890e+01
       H  7.14808e+00  1.57152e+01  1.19367e+01
       C  8.55635e+00  1.16318e+01  4.34907e+00
       H  7.61205e+00  1.19890e+01  4.78030e+00
       H  9.23088e+00  1.13180e+01  5.15722e+00
       H  9.02410e+00  1.24424e+01  3.77399e+00
       H  8.35786e+00  1.07792e+01  3.68549e+00
       C  5.52428e+00  6.85165e+00  1.06071e+01
       H  5.87553e+00  7.66047e+00  9.95259e+00
       H  4.44172e+00  6.95084e+00  1.07583e+01
       H  6.03703e+00  6.91395e+00  1.15765e+01
       H  5.74003e+00  5.88081e+00  1.01418e+01
       C  2.09293e+01  1.58806e+01  5.85794e+00
       H  2.17499e+01  1.57171e+01  6.56898e+00
       H  2.10412e+01  1.51948e+01  5.00692e+00
       H  2.09489e+01  1.69172e+01  5.49584e+00
       H  1.99714e+01  1.56956e+01  6.36131e+00
       C  2.84564e+01  4.84938e+00  1.43513e+01
       H  2.91234e+01  5.51125e+00  1.49180e+01
       H  2.83500e+01  3.89385e+00  1.48819e+01
       H  2.88794e+01  4.67149e+00  1.33533e+01
       H  2.74707e+01  5.32408e+00  1.42542e+01
       C  9.37951e+00  2.49233e+01  1.36867e+01
       H  9.38436e+00  2.39964e+01  1.30976e+01
       H  8.80608e+00  2.56948e+01  1.31555e+01
       H  1.04112e+01  2.52702e+01  1.38335e+01
       H  8.91422e+00  2.47337e+01  1.46629e+01
       C  1.05436e+01  1.94462e+01  1.13264e+01
       H  1.12701e+01  1.86871e+01  1.16459e+01
       H  9.53837e+00  1.90072e+01  1.13234e+01
       H  1.08015e+01  1.97925e+01  1.03162e+01
       H  1.05644e+01  2.02931e+01  1.20243e+01
       C  3.78414e+00  7.92835e+00  2.34711e+01
       H  4.39015e+00  8.64866e+00  2.29053e+01
       H  4.39148e+00  7.04874e+00  2.37233e+01
       H  2.92614e+00  7.61222e+00  2.28628e+01
       H  3.42493e+00  8.40221e+00  2.43944e+01
       C  2.09224e+01  5.99955e+00  2.58499e+01
       H  2.00309e+01  6.63246e+00  2.57462e+01
       H  2.08480e+01  5.14001e+00  2.51700e+01
       H  2.09947e+01  5.64240e+00  2.68859e+01
       H  2.18177e+01  6.58314e+00  2.55991e+01
       C  1.46735e+01  1.44892e+00  7.95893e-01
       H  1.52128e+01  1.48250e+00 -1.60332e-01
       H  1.53933e+01  1.48407e+00  1.62515e+00
       H  1.40912e+01  5.19413e-01  8.56299e-01
       H  1.39962e+01  2.31124e+00  8.62864e-01
       C  1.55006e+01  1.18280e+01  2.08075e+01
       H  1.51798e+01  1.14260e+01  2.17768e+01
       H  1.51252e+01  1.11901e+01  1.99955e+01
       H  1.65982e+01  1.18599e+01  2.07707e+01
       H  1.50992e+01  1.28432e+01  2.06891e+01
       C  1.24210e+01  1.75415e+01  1.70341e+01
       H  1.29699e+01  1.78655e+01  1.79287e+01
       H  1.22032e+01  1.64674e+01  1.71056e+01
       H  1.30327e+01  1.77308e+01  1.61415e+01
       H  1.14789e+01  1.81012e+01  1.69583e+01
       C  2.00652e+01  1.22364e+01  1.23491e+00
       H  1.95007e+01  1.15010e+01  6.45571e-01
       H  2.09460e+01  1.17523e+01  1.67788e+00
       H  1.94245e+01  1.26348e+01  2.03335e+00
       H  2.03910e+01  1.30578e+01  5.82765e-01
       C  2.27012e+01  1.66445e+01  2.04936e+01
       H  2.33638e+01  1.57870e+01  2.06696e+01
       H  2.19813e+01  1.67169e+01  2.13188e+01
       H  2.21583e+01  1.65070e+01  1.95490e+01
       H  2.33011e+01  1.75634e+01  2.04411e+01
       C  1.21228e+01  2.80824e+01  5.80082e+00
       H  1.21247e+01  2.88785e+01  6.55598e+00
       H  1.30864e+01  2.80820e+01  5.27396e+00
       H  1.13078e+01  2.82589e+01  5.08504e+00
       H  1.19714e+01  2.71106e+01  6.29049e+00
       C  2.36577e+01  1.75658e+01  2.35642e+01
       H  2.28393e+01  1.81656e+01  2.31440e+01
       H  2.38318e+01  1.78660e+01  2.46059e+01
       H  2.45699e+01  1.77313e+01  2.29755e+01
       H  2.33902e+01  1.65009e+01  2.35294e+01
       C  7.65914e+00  2.90404e+00  2.85320e+01
       H  7.51284e+00  3.93093e+00  2.81703e+01
       H  8.63743e+00  2.82529e+00  2.90252e+01
       H  7.62027e+00  2.20779e+00  2.76833e+01
       H  6.86577e+00  2.65161e+00  2.92487e+01
       C  2.56477e+01  2.01158e+01  8.43364e+00
       H  2.62163e+01  1.92526e+01  8.80399e+00
       H  2.61564e+01  2.10409e+01  8.73647e+00
       H  2.46335e+01  2.01002e+01  8.85400e+00
       H  2.55885e+01  2.00711e+01  7.33837e+00
       C  2.51405e+01  2.57825e+01  1.25058e+00
       H  2.45185e+01  2.48848e+01  1.36394e+00
       H  2.48151e+01  2.63450e+01  3.65455e-01
       H  2.61905e+01  2.54817e+01  1.13263e+00
       H  2.50384e+01  2.64176e+01  2.14092e+00
       C  2.29277e+01  1.98697e+01  2.70192e+01
       H  2.34546e+01  2.00420e+01  2.79675e+01
       H  2.23799e+01  1.89191e+01  2.70716e+01
       H  2.36553e+01  1.98269e+01  2.61977e+01
       H  2.22210e+01  2.06913e+01  2.68397e+01
       C  1.98204e+01  2.20560e+01  1.85099e+01
       H  1.91793e+01  2.14393e+01  1.78667e+01
       H  1.95451e+01  2.19003e+01  1.95613e+01
       H  1.96914e+01  2.31150e+01  1.82490e+01
       H  2.08664e+01  2.17646e+01  1.83545e+01
       C  3.33315e+00  4.45432e+00  9.15091e+00
       H  2.58068e+00  4.03791e+00  8.46797e+00
       H  4.27480e+00  4.60644e+00  8.60703e+00
       H  3.49755e+00  3.75752e+00  9.98392e+00
       H  2.97889e+00  5.41669e+00  9.54389e+00
       C  8.71700e+00  1.08256e+01  1.42737e+01
       H  7.94869e+00  1.07467e+01  1.50540e+01
       H  8.38976e+00  1.15505e+01  1.35181e+01
       H  8.85947e+00  9.84542e+00  1.37996e+01
       H  9.66389e+00  1.11587e+01  1.47188e+01
       C  2.72821e+01  3.59136e+00 -1.44134e-01
       H  2.70024e+01  2.69110e+00  4.18688e-01
       H  2.76067e+01  4.37324e+00  5.55891e-01
       H  2.64161e+01  3.94653e+00 -7.19372e-01
       H  2.81051e+01  3.35419e+00 -8.31063e-01
       C  2.35049e+01  9.85726e+00  5.20145e+00
       H  2.30988e+01  9.41663e+00  6.12198e+00
       H  2.45989e+01  9.76189e+00  5.20095e+00
       H  2.32288e+01  1.09195e+01  5.14944e+00
       H  2.30877e+01  9.32844e+00  4.33486e+00
       C  2.16891e+01  2.03390e+01  1.01057e+01
       H  2.22944e+01  2.11095e+01  1.06017e+01
       H  2.20745e+01  1.93435e+01  1.03635e+01
       H  2.17394e+01  2.04814e+01  9.01874e+00
       H  2.06468e+01  2.04237e+01  1.04412e+01
       C  1.15125e+01  2.83975e+01  2.06394e+01
       H  1.14451e+01  2.82498e+01  2.17258e+01
       H  1.25453e+01  2.86547e+01  2.03684e+01
       H  1.08402e+01  2.92123e+01  2.03396e+01
       H  1.12182e+01  2.74734e+01  2.01244e+01
       C  1.43795e+01  1.33034e+01  5.53532e+00
       H  1.40309e+01  1.32668e+01  6.57634e+00
       H  1.54284e+01  1.29821e+01  5.48992e+00
       H  1.42935e+01  1.43309e+01  5.15578e+00
       H  1.37633e+01  1.26352e+01  4.91856e+00
       C  6.70560e+00  9.48024e+00  2.65425e+01
       H  6.94402e+00  1.04373e+01  2.60587e+01
       H  5.61526e+00  9.35590e+00  2.65897e+01
       H  7.11621e+00  9.47169e+00  2.75613e+01
       H  7.14603e+00  8.65797e+00  2.59628e+01
       C  2.29431e+00  2.63497e+01  2.37357e+01
       H  2.92886e+00  2.60324e+01  2.28972e+01
       H  2.62788e+00  2.73322e+01  2.40965e+01
       H  2.36892e+00  2.56155e+01  2.45494e+01
       H  1.25095e+00  2.64187e+01  2.33992e+01
       C  8.33529e+00  2.63804e+01  1.88715e+01
       H  9.35244e+00  2.66836e+01  1.85887e+01
       H  7.60960e+00  2.70689e+01  1.84182e+01
       H  8.23540e+00  2.64097e+01  1.99651e+01
       H  8.14331e+00  2.53601e+01  1.85138e+01
       C  1.43885e+01  1.50092e+01  1.43851e+01
       H  1.49213e+01  1.47220e+01  1.34692e+01
       H  1.46870e+01  1.60237e+01  1.46795e+01
       H  1.46394e+01  1.43012e+01  1.51857e+01
       H  1.33062e+01  1.49904e+01  1.42015e+01
       C  2.44076e+01  1.19283e+01  2.08655e+01
       H  2.53105e+01  1.20580e+01  2.14770e+01
       H  2.46860e+01  1.15361e+01  1.98786e+01
       H  2.39079e+01  1.28989e+01  2.07477e+01
       H  2.37273e+01  1.12233e+01  2.13617e+01
       C  2.17817e+01  1.28839e+01  2.31265e+01
       H  2.15621e+01  1.22484e+01  2.22579e+01
       H  2.21494e+01  1.22596e+01  2.39524e+01
       H  2.08671e+01  1.34048e+01  2.34388e+01
       H  2.25467e+01  1.36246e+01  2.28568e+01
       C  1.35688e+01  2.71375e+01  1.29807e+01
       H  1.40142e+01  2.67957e+01  1.20373e+01
       H  1.32316e+01  2.62674e+01  1.35596e+01
       H  1.27120e+01  2.77935e+01  1.27710e+01
       H  1.43256e+01  2.76855e+01  1.35564e+01
       C  4.42206e+00  1.86419e+01  2.53443e+01
       H  5.21628e+00  1.92541e+01  2.57925e+01
       H  4.84093e+00  1.80398e+01  2.45265e+01
       H  3.63233e+00  1.92962e+01  2.49511e+01
       H  3.99643e+00  1.79768e+01  2.61074e+01
       C  2.29820e+01  1.43255e+01  1.01699e+01
       H  2.25128e+01  1.42872e+01  9.17809e+00
       H  2.28851e+01  1.33504e+01  1.06644e+01
       H  2.24887e+01  1.50940e+01  1.07803e+01
       H  2.40469e+01  1.45640e+01  1.00575e+01
       C  1.85100e+01  1.31874e+01  6.96708e+00
       H  1.84090e+01  1.22235e+01  7.48364e+00
       H  1.76936e+01  1.32997e+01  6.24188e+00
       H  1.94739e+01  1.32194e+01  6.44148e+00
       H  1.84652e+01  1.40039e+01  7.70018e+00
       C  2.05735e+01  7.44710e+00  1.63285e+01
       H  2.11057e+01  7.53242e+00  1.72852e+01
       H  2.12854e+01  7.57058e+00  1.55015e+01
       H  1.98026e+01  8.22627e+00  1.62637e+01
       H  2.01009e+01  6.45814e+00  1.62579e+01
       C  2.01721e+01  1.09264e+01  4.76893e+00
       H  2.06989e+01  1.17013e+01  4.19634e+00
       H  2.04053e+01  1.10392e+01  5.83617e+00
       H  2.04979e+01  9.93364e+00  4.43133e+00
       H  1.90888e+01  1.10270e+01  4.61707e+00
       C  2.48739e+01  1.38966e+01  1.31502e+01
       H  2.41286e+01  1.35977e+01  1.38995e+01
       H  2.58795e+01  1.38425e+01  1.35882e+01
       H  2.46763e+01  1.49251e+01  1.28193e+01
       H  2.48104e+01  1.32177e+01  1.22899e+01
       C  2.16410e+01  9.06872e-01  2.09531e+00
       H  2.12171e+01  3.04592e-02  2.60381e+00
       H  2.09844e+01  1.77399e+00  2.25069e+00
       H  2.17252e+01  7.01385e-01  1.01929e+00
       H  2.26364e+01  1.12219e+00  2.50660e+00
       C  2.84150e+01  7.15239e+00  1.98566e+01
       H  2.79269e+01  6.42797e+00  1.91922e+01
       H  2.77450e+01  7.39462e+00  2.06922e+01
       H  2.86457e+01  8.06802e+00  1.92955e+01
       H  2.93426e+01  6.71329e+00  2.02471e+01
       C  6.97682e+00  1.00268e+01  8.20181e+00
       H  7.99679e+00  9.63414e+00  8.09422e+00
       H  6.27069e+00  9.33706e+00  7.72094e+00
       H  6.90871e+00  1.10138e+01  7.72365e+00
       H  6.73102e+00  1.01175e+01  9.26845e+00
       C  1.96640e+01  6.91623e+00  2.25551e+01
       H  2.02268e+01  6.06031e+00  2.29504e+01
       H  2.01230e+01  7.24709e+00  2.16144e+01
       H  1.96816e+01  7.73409e+00  2.32881e+01
       H  1.86238e+01  6.61900e+00  2.23675e+01
       C  1.89939e+00  1.54411e+01  8.08324e-01
       H  2.38007e+00  1.59079e+01  1.67815e+00
       H  2.60538e+00  1.54163e+01 -3.25405e-02
       H  1.01212e+00  1.60228e+01  5.24391e-01
       H  1.59674e+00  1.44164e+01  1.06245e+00
       C  1.14074e+01  1.14651e+01  2.07611e+00
       H  1.09862e+01  1.24790e+01  2.04812e+00
       H  1.13702e+01  1.10800e+01  3.10422e+00
       H  1.24504e+01  1.14928e+01  1.73279e+00
       H  1.08227e+01  1.08076e+01  1.41859e+00
       C  1.83869e+01  7.68197e+00  2.79194e+01
       H  1.76453e+01  7.33897e+00  2.71855e+01
       H  1.89694e+01  6.82194e+00  2.82772e+01
       H  1.78734e+01  8.15579e+00  2.87669e+01
       H  1.90610e+01  8.41024e+00  2.74482e+01
       C  4.54007e+00  1.66211e+01  3.68402e+00
       H  4.39117e+00  1.57913e+01  2.98017e+00
       H  5.31113e+00  1.63441e+01  4.41569e+00
       H  3.59758e+00  1.68328e+01  4.20718e+00
       H  4.86261e+00  1.75149e+01  3.13304e+00
       C  7.09735e-01  1.38408e+01  4.44375e+00