LAMMPS data file. CGCMM style. atom_style full generated by VMD/TopoTools v1.5 on Wed Nov 30 12:14:08 GMT 2016
 2000 atoms
 1600 bonds
 2400 angles
 0 dihedrals
 0 impropers
 2 atom types
 1 bond types
 1 angle types
 0 dihedral types
 0 improper types
 0.0 73.44  xlo xhi
 0.0 73.44  ylo yhi
 0.0 73.44  zlo zhi

# Pair Coeffs
#
# 1  CT
# 2  HC

# Bond Coeffs
#
# 1  CT-HC

# Angle Coeffs
#
# 1  HC-CT-HC

 Masses

 1 12.011000 # CT
 2 1.008000 # HC

 Atoms

1 1 1 -0.240000 37.620587 54.168224 17.934690 # CT
2 1 2 0.060000 38.121510 53.546963 18.674320 # HC
3 1 2 0.060000 38.075486 54.008866 16.959173 # HC
4 1 2 0.060000 37.718864 55.215261 18.214019 # HC
5 1 2 0.060000 36.566511 53.901837 17.891229 # HC
6 2 1 -0.240000 48.927056 2.710499 61.739019 # CT
7 2 2 0.060000 49.876650 3.012629 62.175975 # HC
8 2 2 0.060000 49.081793 2.416424 60.702902 # HC
9 2 2 0.060000 48.228009 3.543383 61.779111 # HC
10 2 2 0.060000 48.521758 1.869584 62.298056 # HC
11 3 1 -0.240000 13.210383 29.361789 51.671769 # CT
12 3 2 0.060000 13.332581 30.340038 52.132244 # HC
13 3 2 0.060000 13.603431 28.595969 52.337348 # HC
14 3 2 0.060000 13.751667 29.334880 50.728235 # HC
15 3 2 0.060000 12.153886 29.176247 51.489239 # HC
16 4 1 -0.240000 26.682164 63.705460 55.636646 # CT
17 4 2 0.060000 26.227577 63.127392 56.438600 # HC
18 4 2 0.060000 25.903067 64.102392 54.989023 # HC
19 4 2 0.060000 27.343606 63.064421 55.057393 # HC
20 4 2 0.060000 27.254401 64.527620 56.061529 # HC
21 5 1 -0.240000 70.008156 30.426140 28.211348 # CT
22 5 2 0.060000 70.601585 31.114533 27.613102 # HC
23 5 2 0.060000 70.484865 30.282744 29.178895 # HC
24 5 2 0.060000 69.934940 29.469653 27.697789 # HC
25 5 2 0.060000 69.011250 30.837592 28.355614 # HC
26 6 1 -0.240000 37.425034 59.009119 5.672597 # CT
27 6 2 0.060000 36.966909 58.024352 5.738144 # HC
28 6 2 0.060000 38.173317 59.009184 4.882638 # HC
29 6 2 0.060000 37.899133 59.252465 6.621272 # HC
30 6 2 0.060000 36.660819 59.750478 5.448345 # HC
31 7 1 -0.240000 51.337686 6.429595 18.421883 # CT
32 7 2 0.060000 51.597565 5.571146 19.037894 # HC
33 7 2 0.060000 50.817359 6.090642 17.528389 # HC
34 7 2 0.060000 52.244580 6.957991 18.134982 # HC
35 7 2 0.060000 50.691260 7.098605 18.986230 # HC
36 8 1 -0.240000 46.833465 39.796442 53.417402 # CT
37 8 2 0.060000 47.907674 39.959887 53.359939 # HC
38 8 2 0.060000 46.427650 40.346616 54.263915 # HC
39 8 2 0.060000 46.634545 38.734442 53.546073 # HC
40 8 2 0.060000 46.363975 40.144803 52.499713 # HC
41 9 1 -0.240000 62.892920 1.888529 21.596651 # CT
42 9 2 0.060000 62.521110 2.862438 21.284884 # HC
43 9 2 0.060000 63.918025 1.987116 21.947940 # HC
44 9 2 0.060000 62.863055 1.201865 20.753105 # HC
45 9 2 0.060000 62.269522 1.502679 22.400656 # HC
46 10 1 -0.240000 42.826213 60.233072 51.188297 # CT
47 10 2 0.060000 43.140080 59.888452 50.205105 # HC
48 10 2 0.060000 42.380849 59.405984 51.737423 # HC
49 10 2 0.060000 42.094101 61.030252 51.076562 # HC
50 10 2 0.060000 43.689781 60.607598 51.734106 # HC
51 11 1 -0.240000 31.873188 4.421454 31.005145 # CT
52 11 2 0.060000 32.749669 4.326199 30.367454 # HC
53 11 2 0.060000 31.662292 3.464019 31.477166 # HC
54 11 2 0.060000 31.018656 4.725538 30.404081 # HC
55 11 2 0.060000 32.062101 5.170036 31.771868 # HC
56 12 1 -0.240000 59.320721 22.607182 1.802340 # CT
57 12 2 0.060000 58.577059 22.542914 2.594033 # HC
58 12 2 0.060000 59.071987 23.431551 1.137127 # HC
59 12 2 0.060000 59.331486 21.676670 1.238423 # HC
60 12 2 0.060000 60.302340 22.777583 2.239737 # HC
61 13 1 -0.240000 10.617540 7.694998 20.201604 # CT
62 13 2 0.060000 10.346020 7.258521 19.242590 # HC
63 13 2 0.060000 10.300412 7.032521 21.004421 # HC
64 13 2 0.060000 10.127291 8.660027 20.312711 # HC
65 13 2 0.060000 11.696407 7.828934 20.246718 # HC
66 14 1 -0.240000 55.026092 2.839461 24.693632 # CT
67 14 2 0.060000 54.730306 2.221111 25.538674 # HC
68 14 2 0.060000 54.270978 3.603767 24.521577 # HC
69 14 2 0.060000 55.122146 2.218109 23.805564 # HC
70 14 2 0.060000 55.980912 3.314856 24.908679 # HC
71 15 1 -0.240000 20.957277 63.852364 10.157881 # CT
72 15 2 0.060000 21.105304 62.950000 10.747599 # HC
73 15 2 0.060000 21.488005 64.680660 10.622870 # HC
74 15 2 0.060000 19.895167 64.083736 10.109296 # HC
75 15 2 0.060000 21.340610 63.695093 9.151774 # HC
76 16 1 -0.240000 63.625779 54.624689 9.988385 # CT
77 16 2 0.060000 64.168447 53.682898 10.038193 # HC
78 16 2 0.060000 64.298733 55.444364 10.231752 # HC
79 16 2 0.060000 62.803056 54.607323 10.700281 # HC
80 16 2 0.060000 63.232873 54.764194 8.983352 # HC
81 17 1 -0.240000 3.633176 16.579637 60.692030 # CT
82 17 2 0.060000 3.383144 17.259856 61.503649 # HC
83 17 2 0.060000 4.314671 17.073141 60.002117 # HC
84 17 2 0.060000 2.725136 16.295720 60.163992 # HC
85 17 2 0.060000 4.109740 15.689838 61.098322 # HC
86 18 1 -0.240000 60.089345 20.515525 52.272910 # CT
87 18 2 0.060000 60.093944 19.782095 53.076651 # HC
88 18 2 0.060000 59.356981 20.226131 51.522006 # HC
89 18 2 0.060000 61.076691 20.561178 51.817899 # HC
90 18 2 0.060000 59.829777 21.492684 52.675044 # HC
91 19 1 -0.240000 66.682786 40.837614 61.913594 # CT
92 19 2 0.060000 66.957850 39.856530 61.531814 # HC
93 19 2 0.060000 66.850742 40.868788 62.988202 # HC
94 19 2 0.060000 65.631626 41.026271 61.705173 # HC
95 19 2 0.060000 67.290895 41.598868 61.429215 # HC
96 20 1 -0.240000 4.961554 44.637703 23.880936 # CT
97 20 2 0.060000 5.640520 44.767842 23.040692 # HC
98 20 2 0.060000 4.986268 45.526432 24.508241 # HC
99 20 2 0.060000 5.269046 43.772754 24.465130 # HC
100 20 2 0.060000 3.950399 44.483780 23.509720 # HC
101 21 1 -0.240000 23.433013 48.848233 19.736629 # CT
102 21 2 0.060000 22.481898 48.324259 19.667537 # HC
103 21 2 0.060000 23.527171 49.540500 18.902445 # HC
104 21 2 0.060000 24.247453 48.127430 19.703467 # HC
105 21 2 0.060000 23.475557 49.400736 20.673036 # HC
106 22 1 -0.240000 9.022160 24.112681 72.441896 # CT
107 22 2 0.060000 8.816789 23.730876 73.439888 # HC
108 22 2 0.060000 9.088143 23.281977 71.742225 # HC
109 22 2 0.060000 9.964326 24.656968 72.448561 # HC
110 22 2 0.060000 8.219420 24.780893 72.136891 # HC
111 23 1 -0.240000 20.676504 19.118766 43.266198 # CT
112 23 2 0.060000 21.760646 19.194636 43.319327 # HC
113 23 2 0.060000 20.401494 18.352092 42.544711 # HC
114 23 2 0.060000 20.260785 20.075093 42.955417 # HC
115 23 2 0.060000 20.283075 18.853251 44.245301 # HC
116 24 1 -0.240000 22.845996 58.529804 71.245838 # CT
117 24 2 0.060000 23.715787 57.938646 70.966666 # HC
118 24 2 0.060000 22.290645 58.802927 70.350879 # HC
119 24 2 0.060000 23.170547 59.431793 71.760670 # HC
120 24 2 0.060000 22.207003 57.945889 71.905125 # HC
121 25 1 -0.240000 57.618438 30.341876 41.527925 # CT
122 25 2 0.060000 58.064246 30.739991 42.437155 # HC
123 25 2 0.060000 58.404588 30.085457 40.820691 # HC
124 25 2 0.060000 56.963933 31.090890 41.086823 # HC
125 25 2 0.060000 57.040988 29.451188 41.766994 # HC
126 26 1 -0.240000 58.995688 49.444512 15.085614 # CT
127 26 2 0.060000 57.944004 49.561129 14.832035 # HC
128 26 2 0.060000 59.608904 49.876440 14.297346 # HC
129 26 2 0.060000 59.228943 48.386653 15.188061 # HC
130 26 2 0.060000 59.200925 49.953802 16.024991 # HC
131 27 1 -0.240000 61.717890 69.064788 31.785944 # CT
132 27 2 0.060000 61.884870 68.999832 32.859182 # HC
133 27 2 0.060000 60.732181 68.670344 31.547713 # HC
134 27 2 0.060000 62.476498 68.484137 31.265051 # HC
135 27 2 0.060000 61.778009 70.104804 31.471808 # HC
136 28 1 -0.240000 39.484897 12.494181 12.422831 # CT
137 28 2 0.060000 39.012687 11.651655 11.921724 # HC
138 28 2 0.060000 40.109948 13.033740 11.714206 # HC
139 28 2 0.060000 40.098880 12.130044 13.244049 # HC
140 28 2 0.060000 38.718115 13.161284 12.811350 # HC
141 29 1 -0.240000 9.705454 20.280095 17.022288 # CT
142 29 2 0.060000 9.452702 21.322169 16.837521 # HC
143 29 2 0.060000 9.390886 20.003123 18.026428 # HC
144 29 2 0.060000 10.781223 20.145803 16.929242 # HC
145 29 2 0.060000 9.197035 19.649277 16.295992 # HC
146 30 1 -0.240000 66.839520 10.362327 8.889492 # CT
147 30 2 0.060000 65.923424 10.263570 8.310737 # HC
148 30 2 0.060000 67.097309 9.400222 9.327510 # HC
149 30 2 0.060000 66.691059 11.093373 9.681643 # HC
150 30 2 0.060000 67.646283 10.692140 8.238121 # HC
151 31 1 -0.240000 39.338173 50.170870 12.644687 # CT
152 31 2 0.060000 39.986657 49.482360 12.106762 # HC
153 31 2 0.060000 38.303471 49.850572 12.540937 # HC
154 31 2 0.060000 39.450986 51.171825 12.233186 # HC
155 31 2 0.060000 39.611549 50.178746 13.697840 # HC
156 32 1 -0.240000 33.694038 65.139338 39.147926 # CT
157 32 2 0.060000 33.670208 65.867743 38.339965 # HC
158 32 2 0.060000 33.639390 64.135095 38.732629 # HC
159 32 2 0.060000 32.846704 65.304509 39.810279 # HC
160 32 2 0.060000 34.619817 65.249984 39.708835 # HC
161 33 1 -0.240000 52.476090 6.678554 49.012085 # CT
162 33 2 0.060000 53.155406 5.969447 48.543429 # HC
163 33 2 0.060000 53.042671 7.362189 49.641045 # HC
164 33 2 0.060000 51.753173 6.139890 49.621347 # HC
165 33 2 0.060000 51.953108 7.242689 48.242559 # HC
166 34 1 -0.240000 11.357607 34.764094 14.881972 # CT
167 34 2 0.060000 10.807737 34.882200 15.813441 # HC
168 34 2 0.060000 11.461705 35.732533 14.396944 # HC
169 34 2 0.060000 10.816923 34.085736 14.225116 # HC
170 34 2 0.060000 12.344045 34.355916 15.092351 # HC
171 35 1 -0.240000 17.435374 14.384331 49.836155 # CT
172 35 2 0.060000 16.695933 14.764776 49.134422 # HC
173 35 2 0.060000 17.286901 14.850822 50.807908 # HC
174 35 2 0.060000 18.434130 14.615708 49.471571 # HC
175 35 2 0.060000 17.324561 13.306044 49.930736 # HC
176 36 1 -0.240000 26.977286 24.816709 47.954491 # CT
177 36 2 0.060000 27.700617 24.306350 48.587157 # HC
178 36 2 0.060000 26.612333 24.129671 47.193734 # HC
179 36 2 0.060000 27.453076 25.669606 47.474738 # HC
180 36 2 0.060000 26.143128 25.161217 48.562293 # HC
181 37 1 -0.240000 64.077720 14.943292 20.948182 # CT
182 37 2 0.060000 64.774532 15.226326 20.161870 # HC
183 37 2 0.060000 63.871617 15.806268 21.578068 # HC
184 37 2 0.060000 64.514347 14.149947 21.551449 # HC
185 37 2 0.060000 63.150399 14.590628 20.501382 # HC
186 38 1 -0.240000 19.941833 59.654949 14.846481 # CT
187 38 2 0.060000 19.045484 59.625817 14.230323 # HC
188 38 2 0.060000 19.993833 58.753704 15.453947 # HC
189 38 2 0.060000 19.907940 60.528005 15.495014 # HC
190 38 2 0.060000 20.820069 59.712273 14.206682 # HC
191 39 1 -0.240000 71.558171 44.730523 68.595838 # CT
192 39 2 0.060000 71.984811 45.731435 68.586171 # HC
193 39 2 0.060000 72.222305 44.048060 68.069404 # HC
194 39 2 0.060000 70.588158 44.744940 68.103052 # HC
195 39 2 0.060000 71.437397 44.397640 69.624687 # HC
196 40 1 -0.240000 57.244052 62.275227 32.902126 # CT
197 40 2 0.060000 57.188189 61.202334 32.729728 # HC
198 40 2 0.060000 57.617210 62.767564 32.006404 # HC
199 40 2 0.060000 57.917860 62.474484 33.732939 # HC
200 40 2 0.060000 56.252986 62.656543 33.139435 # HC
201 41 1 -0.240000 43.862879 45.945858 47.159401 # CT
202 41 2 0.060000 44.158268 46.529610 46.289964 # HC
203 41 2 0.060000 44.487593 45.057704 47.229242 # HC
204 41 2 0.060000 42.820679 45.649321 47.060135 # HC
205 41 2 0.060000 43.984961 46.546760 48.058257 # HC
206 42 1 -0.240000 24.816957 6.012377 72.247246 # CT
207 42 2 0.060000 25.558087 5.837179 71.470089 # HC
208 42 2 0.060000 25.071384 6.918414 72.793439 # HC
209 42 2 0.060000 24.803451 5.167404 72.932671 # HC
210 42 2 0.060000 23.834917 6.126511 71.792825 # HC
211 43 1 -0.240000 51.616644 12.761683 0.748517 # CT
212 43 2 0.060000 50.968088 12.211762 1.427416 # HC
213 43 2 0.060000 52.434960 13.207626 1.310172 # HC
214 43 2 0.060000 51.044978 13.545784 0.256224 # HC
215 43 2 0.060000 52.018553 12.081602 0.000261 # HC
216 44 1 -0.240000 27.449201 35.818519 47.837293 # CT
217 44 2 0.060000 26.928398 36.236807 46.978376 # HC
218 44 2 0.060000 26.773926 35.784883 48.689839 # HC
219 44 2 0.060000 28.308072 36.441228 48.079251 # HC
220 44 2 0.060000 27.786416 34.811181 47.601740 # HC
221 45 1 -0.240000 13.946300 66.900023 5.878129 # CT
222 45 2 0.060000 13.814492 67.015483 6.952017 # HC
223 45 2 0.060000 14.874774 66.367704 5.681825 # HC
224 45 2 0.060000 13.984931 67.881447 5.409852 # HC
225 45 2 0.060000 13.111035 66.335476 5.468802 # HC
226 46 1 -0.240000 15.138845 51.099649 20.204180 # CT
227 46 2 0.060000 15.313655 50.460714 21.067397 # HC
228 46 2 0.060000 14.401956 50.634943 19.552256 # HC
229 46 2 0.060000 16.070684 51.235887 19.659125 # HC
230 46 2 0.060000 14.769097 52.067039 20.537903 # HC
231 47 1 -0.240000 45.193736 18.209778 31.710107 # CT
232 47 2 0.060000 44.751057 17.319460 31.268168 # HC
233 47 2 0.060000 45.676444 17.946900 32.649176 # HC
234 47 2 0.060000 44.415813 18.947451 31.896237 # HC
235 47 2 0.060000 45.931612 18.625315 31.026884 # HC
236 48 1 -0.240000 35.310223 58.841075 58.742842 # CT
237 48 2 0.060000 35.690543 58.225729 59.555644 # HC
238 48 2 0.060000 34.663311 58.241264 58.105901 # HC
239 48 2 0.060000 36.143497 59.222946 58.156499 # HC
240 48 2 0.060000 34.743552 59.674350 59.153286 # HC
241 49 1 -0.240000 72.666001 18.079439 32.778744 # CT
242 49 2 0.060000 73.331876 17.353043 33.240157 # HC
243 49 2 0.060000 71.663481 17.661673 32.712512 # HC
244 49 2 0.060000 73.026026 18.318441 31.780130 # HC
245 49 2 0.060000 72.642607 18.984588 33.382139 # HC
246 50 1 -0.240000 65.001549 36.455423 13.403423 # CT
247 50 2 0.060000 65.864230 36.696748 12.785777 # HC
248 50 2 0.060000 64.576114 37.372258 13.806388 # HC
249 50 2 0.060000 65.311033 35.808812 14.222009 # HC
250 50 2 0.060000 64.254822 35.943883 12.799557 # HC
251 51 1 -0.240000 4.215934 10.475713 66.929681 # CT
252 51 2 0.060000 3.199243 10.853841 66.844239 # HC
253 51 2 0.060000 4.189915 9.403489 67.113040 # HC
254 51 2 0.060000 4.719558 10.972890 67.756209 # HC
255 51 2 0.060000 4.755034 10.672617 66.005274 # HC
256 52 1 -0.240000 9.438762 28.959482 62.142087 # CT
257 52 2 0.060000 9.269861 27.986895 61.684388 # HC
258 52 2 0.060000 8.678327 29.141183 62.898846 # HC
259 52 2 0.060000 9.383802 29.733683 61.379485 # HC
260 52 2 0.060000 10.423030 28.976196 62.605623 # HC
261 53 1 -0.240000 39.854365 29.962361 33.954853 # CT
262 53 2 0.060000 39.782071 30.664582 33.126843 # HC
263 53 2 0.060000 38.878782 29.517069 34.139012 # HC
264 53 2 0.060000 40.187756 30.487428 34.847672 # HC
265 53 2 0.060000 40.568830 29.180377 33.705921 # HC
266 54 1 -0.240000 33.333624 49.135313 18.634429 # CT
267 54 2 0.060000 32.789248 48.457825 19.289109 # HC
268 54 2 0.060000 33.819849 49.904113 19.231502 # HC
269 54 2 0.060000 32.640148 49.601729 17.937640 # HC
270 54 2 0.060000 34.085240 48.577625 18.079465 # HC
271 55 1 -0.240000 33.429588 14.262319 23.753357 # CT
272 55 2 0.060000 32.587312 13.757343 23.284835 # HC
273 55 2 0.060000 33.218022 14.416876 24.809442 # HC
274 55 2 0.060000 33.589678 15.224410 23.270946 # HC
275 55 2 0.060000 34.323332 13.650685 23.648221 # HC
276 56 1 -0.240000 55.686031 21.623045 1.181565 # CT
277 56 2 0.060000 56.416611 21.552214 0.378336 # HC
278 56 2 0.060000 56.062069 22.288171 1.956268 # HC
279 56 2 0.060000 55.514272 20.635024 1.603801 # HC
280 56 2 0.060000 54.751183 22.016756 0.787892 # HC
281 57 1 -0.240000 11.385931 14.853547 42.578298 # CT
282 57 2 0.060000 11.382038 15.566170 43.400547 # HC
283 57 2 0.060000 12.242898 15.045646 41.935904 # HC
284 57 2 0.060000 10.469327 14.960037 42.001698 # HC
285 57 2 0.060000 11.449457 13.842351 42.975002 # HC
286 58 1 -0.240000 47.181706 44.268637 69.934514 # CT
287 58 2 0.060000 46.887265 44.040883 70.956949 # HC
288 58 2 0.060000 47.410378 45.329123 69.850607 # HC
289 58 2 0.060000 46.366802 44.018712 69.258171 # HC
290 58 2 0.060000 48.062354 43.685856 69.672305 # HC
291 59 1 -0.240000 20.514820 13.675585 43.242077 # CT
292 59 2 0.060000 20.865636 14.171766 42.339484 # HC
293 59 2 0.060000 20.030625 14.402667 43.890821 # HC
294 59 2 0.060000 21.360038 13.230661 43.763249 # HC
295 59 2 0.060000 19.803000 12.897255 42.974790 # HC
296 60 1 -0.240000 22.499739 27.503819 27.171252 # CT
297 60 2 0.060000 22.990131 28.237329 26.534527 # HC
298 60 2 0.060000 21.810354 28.010363 27.843655 # HC
299 60 2 0.060000 23.248493 26.970719 27.753611 # HC
300 60 2 0.060000 21.949984 26.796867 26.553259 # HC
301 61 1 -0.240000 43.733216 8.655075 6.289454 # CT
302 61 2 0.060000 43.520743 7.607347 6.492093 # HC
303 61 2 0.060000 43.723190 8.825955 5.214902 # HC
304 61 2 0.060000 44.712987 8.910167 6.688137 # HC
305 61 2 0.060000 42.975981 9.276842 6.762666 # HC
306 62 1 -0.240000 70.568482 12.839450 9.677103 # CT
307 62 2 0.060000 70.080417 12.750464 10.645511 # HC
308 62 2 0.060000 70.010742 13.534094 9.052316 # HC
309 62 2 0.060000 70.600212 11.864032 9.195936 # HC
310 62 2 0.060000 71.582536 13.209198 9.814615 # HC
311 63 1 -0.240000 0.710525 6.824066 26.767468 # CT
312 63 2 0.060000 0.745472 7.910065 26.825147 # HC
313 63 2 0.060000 1.698775 6.417933 26.973331 # HC
314 63 2 0.060000 0.395528 6.523769 25.770187 # HC
315 63 2 0.060000 0.002347 6.444480 27.501175 # HC
316 64 1 -0.240000 25.302807 56.655405 25.237574 # CT
317 64 2 0.060000 24.358094 56.722685 24.701914 # HC
318 64 2 0.060000 25.117770 56.715082 26.308163 # HC
319 64 2 0.060000 25.950453 57.475814 24.935162 # HC
320 64 2 0.060000 25.784924 55.708074 25.005078 # HC
321 65 1 -0.240000 65.438536 26.869417 42.960216 # CT
322 65 2 0.060000 66.239771 26.493210 43.593013 # HC
323 65 2 0.060000 65.231662 26.149827 42.170688 # HC
324 65 2 0.060000 65.740189 27.816612 42.517727 # HC
325 65 2 0.060000 64.542532 27.018030 43.559398 # HC
326 66 1 -0.240000 54.073376 20.229515 24.487150 # CT
327 66 2 0.060000 53.713112 21.088745 25.049178 # HC
328 66 2 0.060000 54.591557 20.571881 23.593710 # HC
329 66 2 0.060000 53.230267 19.604333 24.200298 # HC
330 66 2 0.060000 54.758550 19.653096 25.105377 # HC
331 67 1 -0.240000 48.910876 47.317173 50.380427 # CT
332 67 2 0.060000 48.015846 46.738578 50.161134 # HC
333 67 2 0.060000 48.697728 48.376728 50.254437 # HC
334 67 2 0.060000 49.707920 47.024160 49.700107 # HC
335 67 2 0.060000 49.222029 47.129248 51.405998 # HC
336 68 1 -0.240000 40.312004 70.905672 61.289504 # CT
337 68 2 0.060000 39.896376 71.899546 61.442504 # HC
338 68 2 0.060000 41.332977 70.877785 61.664737 # HC
339 68 2 0.060000 40.309569 70.671136 60.226981 # HC
340 68 2 0.060000 39.709126 70.174217 61.823770 # HC
341 69 1 -0.240000 6.274997 22.807524 29.404437 # CT
342 69 2 0.060000 6.658089 23.209404 28.468663 # HC
343 69 2 0.060000 7.017602 22.146176 29.846161 # HC
344 69 2 0.060000 5.360876 22.249465 29.212284 # HC
345 69 2 0.060000 6.063414 23.625008 30.090644 # HC
346 70 1 -0.240000 28.412958 59.044873 65.718756 # CT
347 70 2 0.060000 27.747669 58.451500 65.094864 # HC
348 70 2 0.060000 29.429974 58.669982 65.623372 # HC
349 70 2 0.060000 28.095998 58.973473 66.757220 # HC
350 70 2 0.060000 28.378210 60.084517 65.399600 # HC
351 71 1 -0.240000 64.798348 55.437716 62.795840 # CT
352 71 2 0.060000 65.076943 55.254362 61.760124 # HC
353 71 2 0.060000 64.080282 54.685848 63.116834 # HC
354 71 2 0.060000 64.351426 56.426078 62.881696 # HC
355 71 2 0.060000 65.684702 55.384588 63.424713 # HC
356 72 1 -0.240000 60.069571 52.100061 29.377839 # CT
357 72 2 0.060000 59.539857 52.821208 29.996944 # HC
358 72 2 0.060000 59.866220 51.093812 29.738498 # HC
359 72 2 0.060000 61.138951 52.294451 29.428928 # HC
360 72 2 0.060000 59.733288 52.190750 28.347006 # HC
361 73 1 -0.240000 35.892708 61.177459 72.558721 # CT
362 73 2 0.060000 36.520520 61.521157 71.739169 # HC
363 73 2 0.060000 36.066611 61.799530 73.434362 # HC
364 73 2 0.060000 36.137168 60.143596 72.793960 # HC
365 73 2 0.060000 34.846553 61.245535 72.267426 # HC
366 74 1 -0.240000 37.791163 43.080481 69.318888 # CT
367 74 2 0.060000 38.065464 44.034625 69.764209 # HC
368 74 2 0.060000 38.285729 42.273882 69.856257 # HC
369 74 2 0.060000 38.100719 43.064671 68.275866 # HC
370 74 2 0.060000 36.712770 42.948725 69.379202 # HC
371 75 1 -0.240000 3.642835 27.874733 42.739883 # CT
372 75 2 0.060000 3.758075 28.955161 42.797644 # HC
373 75 2 0.060000 4.014947 27.521061 41.780502 # HC
374 75 2 0.060000 2.590416 27.616452 42.838246 # HC
375 75 2 0.060000 4.207876 27.406243 43.543110 # HC
376 76 1 -0.240000 58.227125 54.950647 52.189016 # CT
377 76 2 0.060000 57.965861 53.914587 52.394596 # HC
378 76 2 0.060000 58.129406 55.537038 53.100366 # HC
379 76 2 0.060000 57.559145 55.349013 51.428044 # HC
380 76 2 0.060000 59.254056 55.001978 51.833060 # HC
381 77 1 -0.240000 11.862012 28.089075 53.380978 # CT
382 77 2 0.060000 11.364179 28.631316 54.182275 # HC
383 77 2 0.060000 12.726819 28.655898 53.042182 # HC
384 77 2 0.060000 11.170816 27.951856 52.551888 # HC
385 77 2 0.060000 12.186234 27.117246 53.747526 # HC
386 78 1 -0.240000 15.573489 6.740706 28.253590 # CT
387 78 2 0.060000 16.615805 6.569368 27.992510 # HC
388 78 2 0.060000 15.241110 7.681950 27.820524 # HC
389 78 2 0.060000 15.473162 6.784106 29.336189 # HC
390 78 2 0.060000 14.963871 5.927431 27.865160 # HC
391 79 1 -0.240000 58.912924 20.118116 57.394568 # CT
392 79 2 0.060000 58.679374 19.250236 58.007904 # HC
393 79 2 0.060000 57.993099 20.531764 56.986182 # HC
394 79 2 0.060000 59.569767 19.820295 56.579810 # HC
395 79 2 0.060000 59.409448 20.870165 58.004333 # HC
396 80 1 -0.240000 41.237370 41.620976 50.355491 # CT
397 80 2 0.060000 41.874789 42.180349 49.673772 # HC
398 80 2 0.060000 41.839582 41.219251 51.167846 # HC
399 80 2 0.060000 40.761263 40.803250 49.818261 # HC
400 80 2 0.060000 40.473853 42.281012 50.762089 # HC
401 81 1 -0.240000 16.482285 40.314674 30.611701 # CT
402 81 2 0.060000 16.530054 39.517698 29.872451 # HC
403 81 2 0.060000 16.906981 41.224415 30.192216 # HC
404 81 2 0.060000 17.047430 40.024370 31.495049 # HC
405 81 2 0.060000 15.444713 40.492228 30.887101 # HC
406 82 1 -0.240000 19.833247 33.048776 7.836569 # CT
407 82 2 0.060000 19.306350 32.351529 8.484771 # HC
408 82 2 0.060000 19.975677 33.992669 8.358816 # HC
409 82 2 0.060000 19.248687 33.217965 6.934551 # HC
410 82 2 0.060000 20.802255 32.632976 7.568123 # HC
411 83 1 -0.240000 11.577781 17.281178 29.420664 # CT
412 83 2 0.060000 11.266343 18.291501 29.163377 # HC
413 83 2 0.060000 12.227640 17.312982 30.292807 # HC
414 83 2 0.060000 12.116417 16.843223 28.582788 # HC
415 83 2 0.060000 10.700764 16.676999 29.643680 # HC
416 84 1 -0.240000 48.021200 44.040071 16.106363 # CT
417 84 2 0.060000 47.898195 42.959407 16.137587 # HC
418 84 2 0.060000 47.866959 44.451580 17.101768 # HC
419 84 2 0.060000 47.293420 44.468276 15.420107 # HC
420 84 2 0.060000 49.026192 44.281046 15.765997 # HC
421 85 1 -0.240000 70.039563 15.963940 32.343559 # CT
422 85 2 0.060000 70.466797 15.823652 33.334383 # HC
423 85 2 0.060000 70.833195 15.939428 31.599577 # HC
424 85 2 0.060000 69.531544 16.925202 32.300407 # HC
425 85 2 0.060000 69.326727 15.167514 32.139848 # HC
426 86 1 -0.240000 21.356875 62.221486 33.024283 # CT
427 86 2 0.060000 22.239020 62.267586 32.388959 # HC
428 86 2 0.060000 21.578111 62.680040 33.985920 # HC
429 86 2 0.060000 21.072348 61.182110 33.174983 # HC
430 86 2 0.060000 20.538024 62.756185 32.547305 # HC
431 87 1 -0.240000 23.314561 49.131577 26.197606 # CT
432 87 2 0.060000 23.967610 48.544289 25.555297 # HC
433 87 2 0.060000 23.887111 49.931379 26.662865 # HC
434 87 2 0.060000 22.893172 48.490797 26.969489 # HC
435 87 2 0.060000 22.510358 49.559842 25.602816 # HC
436 88 1 -0.240000 7.954681 21.019951 58.479621 # CT
437 88 2 0.060000 6.866975 20.991670 58.485805 # HC
438 88 2 0.060000 8.338973 20.364806 59.258766 # HC
439 88 2 0.060000 8.292081 22.038076 58.662796 # HC
440 88 2 0.060000 8.320713 20.685268 57.511150 # HC
441 89 1 -0.240000 51.344395 13.609072 67.757785 # CT
442 89 2 0.060000 51.477898 12.777166 68.446299 # HC
443 89 2 0.060000 52.020301 13.492794 66.913041 # HC
444 89 2 0.060000 51.562753 14.543323 68.271073 # HC
445 89 2 0.060000 50.316659 13.623030 67.400724 # HC
446 90 1 -0.240000 40.228167 6.164638 1.262238 # CT
447 90 2 0.060000 39.447582 5.713565 1.871468 # HC
448 90 2 0.060000 39.863334 7.097815 0.837928 # HC
449 90 2 0.060000 40.500710 5.483074 0.459018 # HC
450 90 2 0.060000 41.101036 6.364100 1.880495 # HC
451 91 1 -0.240000 36.799497 36.741748 52.111269 # CT
452 91 2 0.060000 36.686658 37.821765 52.180335 # HC
453 91 2 0.060000 36.719828 36.434571 51.070472 # HC
454 91 2 0.060000 36.017956 36.257466 52.693192 # HC
455 91 2 0.060000 37.773514 36.453165 52.501064 # HC
456 92 1 -0.240000 33.663483 38.015940 40.787051 # CT
457 92 2 0.060000 34.626886 37.578084 40.533917 # HC
458 92 2 0.060000 33.058811 37.281494 41.315182 # HC
459 92 2 0.060000 33.152081 38.318939 39.875662 # HC
460 92 2 0.060000 33.816119 38.885227 41.423424 # HC
461 93 1 -0.240000 50.029513 30.408921 2.458687 # CT
462 93 2 0.060000 49.904451 30.467799 3.537962 # HC
463 93 2 0.060000 50.814533 31.094701 2.146578 # HC
464 93 2 0.060000 49.095820 30.679883 1.970048 # HC
465 93 2 0.060000 50.303237 29.393336 2.180138 # HC
466 94 1 -0.240000 54.755087 42.849073 50.721039 # CT
467 94 2 0.060000 54.217528 41.947416 50.434707 # HC
468 94 2 0.060000 55.467584 42.611920 51.508483 # HC
469 94 2 0.060000 54.048472 43.593010 51.083286 # HC
470 94 2 0.060000 55.286756 43.243959 49.857720 # HC
471 95 1 -0.240000 25.620862 65.770925 13.725634 # CT
472 95 2 0.060000 24.652627 66.247607 13.586942 # HC
473 95 2 0.060000 25.807488 65.631327 14.788482 # HC
474 95 2 0.060000 26.399508 66.400853 13.300346 # HC
475 95 2 0.060000 25.623856 64.803935 13.226787 # HC
476 96 1 -0.240000 55.302721 46.363815 59.425949 # CT
477 96 2 0.060000 55.687943 46.908306 58.566254 # HC
478 96 2 0.060000 54.248607 46.597572 59.560719 # HC
479 96 2 0.060000 55.855505 46.654653 60.316911 # HC
480 96 2 0.060000 55.418817 45.294754 59.259947 # HC
481 97 1 -0.240000 17.607155 6.797940 72.163615 # CT
482 97 2 0.060000 18.649009 6.657122 72.444063 # HC
483 97 2 0.060000 17.499671 6.665121 71.089013 # HC
484 97 2 0.060000 17.290055 7.801862 72.438491 # HC
485 97 2 0.060000 16.989875 6.067686 72.682867 # HC
486 98 1 -0.240000 62.867757 53.241483 21.596358 # CT
487 98 2 0.060000 63.069326 53.819257 20.696642 # HC
488 98 2 0.060000 63.723577 52.607744 21.819760 # HC
489 98 2 0.060000 61.987986 52.620757 21.439284 # HC
490 98 2 0.060000 62.690135 53.918131 22.429740 # HC
491 99 1 -0.240000 65.271223 65.291984 2.029502 # CT
492 99 2 0.060000 65.256799 64.317300 1.546053 # HC
493 99 2 0.060000 65.125068 66.069555 1.282519 # HC
494 99 2 0.060000 66.230201 65.438216 2.522399 # HC
495 99 2 0.060000 64.472855 65.342891 2.767028 # HC
496 100 1 -0.240000 59.241644 50.252249 63.719401 # CT
497 100 2 0.060000 58.972074 49.367498 64.292540 # HC
498 100 2 0.060000 58.456528 50.470403 62.998316 # HC
499 100 2 0.060000 60.177244 50.072688 63.193683 # HC
500 100 2 0.060000 59.360738 51.098402 64.393025 # HC
501 101 1 -0.240000 49.031168 53.597348 48.795835 # CT
502 101 2 0.060000 49.185644 54.271985 47.956226 # HC
503 101 2 0.060000 49.916609 52.979906 48.932661 # HC
504 101 2 0.060000 48.172077 52.960209 48.595868 # HC
505 101 2 0.060000 48.850339 54.177251 49.698576 # HC
506 102 1 -0.240000 10.533919 8.254106 22.438115 # CT
507 102 2 0.060000 9.888286 8.370440 21.570034 # HC
508 102 2 0.060000 11.029588 7.286448 22.394407 # HC
509 102 2 0.060000 9.936280 8.314823 23.345370 # HC
510 102 2 0.060000 11.281511 9.044684 22.442678 # HC
511 103 1 -0.240000 21.715719 28.536893 33.659511 # CT
512 103 2 0.060000 21.778767 28.308508 32.597529 # HC
513 103 2 0.060000 22.658928 28.286757 34.140917 # HC
514 103 2 0.060000 20.913667 27.954739 34.108709 # HC
515 103 2 0.060000 21.511517 29.597535 33.790917 # HC
516 104 1 -0.240000 65.616812 4.833269 1.535498 # CT
517 104 2 0.060000 65.902825 4.236732 2.399374 # HC
518 104 2 0.060000 64.577537 5.139964 1.634529 # HC
519 104 2 0.060000 65.735531 4.241067 0.630416 # HC
520 104 2 0.060000 66.251326 5.715296 1.477646 # HC
521 105 1 -0.240000 59.386632 26.562968 11.795445 # CT
522 105 2 0.060000 59.877365 26.818315 12.732419 # HC
523 105 2 0.060000 59.607154 25.528346 11.540711 # HC
524 105 2 0.060000 59.750815 27.216542 11.005393 # HC
525 105 2 0.060000 58.311219 26.688659 11.903224 # HC
526 106 1 -0.240000 55.576820 51.836250 23.437475 # CT
527 106 2 0.060000 55.111819 51.091109 22.795230 # HC
528 106 2 0.060000 56.016141 51.345317 24.303468 # HC
529 106 2 0.060000 54.825114 52.550219 23.767862 # HC
530 106 2 0.060000 56.354191 52.358361 22.883379 # HC
531 107 1 -0.240000 28.424212 70.501404 52.577053 # CT
532 107 2 0.060000 28.088097 69.477719 52.425273 # HC
533 107 2 0.060000 27.982735 70.896561 53.489693 # HC
534 107 2 0.060000 28.117143 71.113158 51.731219 # HC
535 107 2 0.060000 29.508843 70.518208 52.662025 # HC
536 108 1 -0.240000 34.878312 36.082343 14.069899 # CT
537 108 2 0.060000 34.549092 36.688274 14.911565 # HC
538 108 2 0.060000 35.327186 36.724144 13.314541 # HC
539 108 2 0.060000 34.024258 35.561257 13.642078 # HC
540 108 2 0.060000 35.612693 35.355701 14.411374 # HC
541 109 1 -0.240000 16.658317 26.056322 66.264010 # CT
542 109 2 0.060000 16.314784 27.088620 66.280966 # HC
543 109 2 0.060000 16.501196 25.605670 67.241858 # HC
544 109 2 0.060000 17.718154 26.030740 66.018936 # HC
545 109 2 0.060000 16.099167 25.500249 65.514302 # HC
546 110 1 -0.240000 4.401244 67.466941 60.070270 # CT
547 110 2 0.060000 4.317429 68.483893 59.692480 # HC
548 110 2 0.060000 5.398916 67.311787 60.475906 # HC
549 110 2 0.060000 4.226005 66.763108 59.259172 # HC
550 110 2 0.060000 3.662654 67.308951 60.853501 # HC
551 111 1 -0.240000 22.158322 66.584585 47.191911 # CT
552 111 2 0.060000 23.209155 66.303062 47.171072 # HC
553 111 2 0.060000 22.025238 67.440962 47.849839 # HC
554 111 2 0.060000 21.566225 65.749098 47.559815 # HC
555 111 2 0.060000 21.832648 66.845214 46.186955 # HC
556 112 1 -0.240000 33.548800 35.900799 40.692584 # CT
557 112 2 0.060000 32.510697 35.649747 40.484606 # HC
558 112 2 0.060000 33.883035 36.667397 39.996468 # HC
559 112 2 0.060000 34.166736 35.012544 40.578006 # HC
560 112 2 0.060000 33.634762 36.273500 41.711226 # HC