2002
# CELL(abcABC):  138.78148   138.78148   138.78148    90.00000    90.00000    90.00000  Step:         100  Bead:       0 x_centroid{angstrom}  cell{atomic_unit}
       C  3.76339e+01  5.41641e+01  1.78183e+01
       H  3.81320e+01  5.35468e+01  1.85783e+01
       H  3.80912e+01  5.39770e+01  1.68372e+01
       H  3.77456e+01  5.52256e+01  1.80779e+01
       H  3.65666e+01  5.39069e+01  1.77797e+01
       C  4.87719e+01  2.61226e+00  6.19209e+01
       H  4.98261e+01  2.79506e+00  6.16722e+01
       H  4.83748e+01  1.82151e+00  6.12697e+01
       H  4.81940e+01  3.53401e+00  6.17700e+01
       H  4.86929e+01  2.29950e+00  6.29711e+01
       C  1.35911e+01  2.94265e+01  5.11160e+01
       H  1.35675e+01  3.01732e+01  5.19212e+01
       H  1.41004e+01  2.85206e+01  5.14726e+01
       H  1.41308e+01  2.98384e+01  5.02524e+01
       H  1.25645e+01  2.91729e+01  5.08188e+01
       C  2.67156e+01  6.37190e+01  5.56499e+01
       H  2.62088e+01  6.31580e+01  5.64468e+01
       H  2.59698e+01  6.40984e+01  5.49380e+01
       H  2.74183e+01  6.30569e+01  5.51259e+01
       H  2.72653e+01  6.45627e+01  5.60886e+01
       C  6.99920e+01  3.03866e+01  2.80029e+01
       H  7.04961e+01  3.09506e+01  2.72063e+01
       H  7.02274e+01  3.08372e+01  2.89770e+01
       H  7.03381e+01  2.93439e+01  2.79886e+01
       H  6.89057e+01  3.04141e+01  2.78405e+01
       C  3.72855e+01  5.90771e+01  5.50735e+00
       H  3.68545e+01  5.80696e+01  5.58377e+00
       H  3.80603e+01  5.90858e+01  4.72870e+00
       H  3.77317e+01  5.93584e+01  6.47095e+00
       H  3.64956e+01  5.97945e+01  5.24604e+00
       C  5.13930e+01  6.42444e+00  1.84615e+01
       H  5.16776e+01  5.57856e+00  1.91019e+01
       H  5.08439e+01  6.05220e+00  1.75859e+01
       H  5.22971e+01  6.95262e+00  1.81292e+01
       H  5.07535e+01  7.11432e+00  1.90287e+01
       C  4.65527e+01  3.98115e+01  5.34193e+01
       H  4.76381e+01  3.99658e+01  5.33506e+01
       H  4.61545e+01  4.03838e+01  5.42682e+01
       H  4.63435e+01  3.87433e+01  5.35676e+01
       H  4.60747e+01  4.01529e+01  5.24910e+01
       C  6.26148e+01  1.94528e+00  2.16823e+01
       H  6.22429e+01  2.92446e+00  2.13512e+01
       H  6.36367e+01  2.05375e+00  2.20705e+01
       H  6.26180e+01  1.24852e+00  2.08330e+01
       H  6.19617e+01  1.55435e+00  2.24744e+01
       C  4.28240e+01  6.03030e+01  5.12108e+01
       H  4.31306e+01  5.99230e+01  5.02268e+01
       H  4.23347e+01  5.94993e+01  5.17777e+01
       H  4.21220e+01  6.11376e+01  5.10787e+01
       H  4.37088e+01  6.06523e+01  5.17604e+01
       C  3.14434e+01  4.69188e+00  3.07536e+01
       H  3.22532e+01  4.69740e+00  3.00116e+01
       H  3.12098e+01  3.65494e+00  3.10314e+01
       H  3.05514e+01  5.16794e+00  3.03247e+01
       H  3.17601e+01  5.24686e+00  3.16473e+01
       C  5.92965e+01  2.25654e+01  1.82441e+00
       H  5.87827e+01  2.25034e+01  2.79349e+00
       H  5.88089e+01  2.33259e+01  1.19946e+00
       H  5.92456e+01  2.15904e+01  1.32082e+00
       H  6.03477e+01  2.28415e+01  1.98396e+00
       C  1.07039e+01  7.50106e+00  1.96535e+01
       H  1.08134e+01  7.27058e+00  1.85851e+01
       H  1.00994e+01  6.72369e+00  2.01403e+01
       H  1.02057e+01  8.47294e+00  1.97713e+01
       H  1.16974e+01  7.53777e+00  2.01209e+01
       C  5.48994e+01  2.74637e+00  2.47265e+01
       H  5.42714e+01  2.09620e+00  2.53507e+01
       H  5.42649e+01  3.31487e+00  2.40332e+01
       H  5.56058e+01  2.13057e+00  2.41535e+01
       H  5.54569e+01  3.44313e+00  2.53673e+01
       C  2.08501e+01  6.37722e+01  1.03647e+01
       H  2.09415e+01  6.28544e+01  1.09614e+01
       H  2.14445e+01  6.45713e+01  1.08284e+01
       H  1.97958e+01  6.40778e+01  1.03220e+01
       H  2.12187e+01  6.35856e+01  9.34682e+00
       C  6.31595e+01  5.47047e+01  1.03522e+01
       H  6.36541e+01  5.37262e+01  1.04211e+01
       H  6.39176e+01  5.54996e+01  1.03730e+01
       H  6.24737e+01  5.48293e+01  1.12013e+01
       H  6.25930e+01  5.47640e+01  9.41287e+00
       C  3.67079e+00  1.66138e+01  6.06776e+01
       H  3.38065e+00  1.72969e+01  6.14876e+01
       H  4.36394e+00  1.71264e+01  5.99969e+01
       H  2.77533e+00  1.63026e+01  6.01227e+01
       H  4.16332e+00  1.57291e+01  6.11038e+01
       C  6.04948e+01  2.01825e+01  5.25332e+01
       H  6.01610e+01  1.94754e+01  5.33051e+01
       H  5.98615e+01  2.00784e+01  5.16413e+01
       H  6.15393e+01  1.99690e+01  5.22685e+01
       H  6.04179e+01  2.12083e+01  5.29186e+01
       C  6.67071e+01  4.08701e+01  6.19437e+01
       H  6.69936e+01  3.98795e+01  6.15653e+01
       H  6.68748e+01  4.09100e+01  6.30286e+01
       H  6.56446e+01  4.10504e+01  6.17306e+01
       H  6.73153e+01  4.16405e+01  6.14505e+01
       C  5.07284e+00  4.44149e+01  2.37637e+01
       H  5.74937e+00  4.45400e+01  2.29074e+01
       H  5.08771e+00  4.53253e+01  2.43782e+01
       H  5.40229e+00  4.35592e+01  2.43688e+01
       H  4.05182e+00  4.42350e+01  2.34005e+01
       C  2.37038e+01  4.91701e+01  1.97343e+01
       H  2.33324e+01  4.82050e+01  2.01057e+01
       H  2.28511e+01  4.98103e+01  1.94664e+01
       H  2.43307e+01  4.90046e+01  1.88466e+01
       H  2.42987e+01  4.96601e+01  2.05172e+01
       C  9.05019e+00  2.41744e+01  7.23916e+01
       H  8.85096e+00  2.37809e+01  7.33977e+01
       H  9.11340e+00  2.33412e+01  7.16785e+01
       H  1.00003e+01  2.47258e+01  7.23956e+01
       H  8.23624e+00  2.48496e+01  7.20946e+01
       C  2.09135e+01  1.98316e+01  4.27919e+01
       H  2.19322e+01  1.94257e+01  4.28640e+01
       H  2.02025e+01  1.90069e+01  4.26483e+01
       H  2.08578e+01  2.05217e+01  4.19390e+01
       H  2.06631e+01  2.03704e+01  4.37151e+01
       C  2.28522e+01  5.85274e+01  7.12156e+01
       H  2.37278e+01  5.79287e+01  7.09300e+01
       H  2.22820e+01  5.87949e+01  7.03156e+01
       H  2.31845e+01  5.94427e+01  7.17241e+01
       H  2.22144e+01  5.79433e+01  7.18930e+01
       C  5.76094e+01  3.03299e+01  4.15809e+01
       H  5.80724e+01  3.07307e+01  4.24929e+01
       H  5.83941e+01  3.00407e+01  4.08686e+01
       H  5.69686e+01  3.10983e+01  4.11275e+01
       H  5.70027e+01  2.94500e+01  4.18345e+01
       C  5.89430e+01  4.96892e+01  1.49342e+01
       H  5.78528e+01  4.97607e+01  1.48207e+01
       H  5.94325e+01  5.01575e+01  1.40696e+01
       H  5.92368e+01  4.86323e+01  1.49936e+01
       H  5.92500e+01  5.02064e+01  1.58535e+01
       C  6.15173e+01  6.87547e+01  3.19469e+01
       H  6.16006e+01  6.86611e+01  3.30382e+01
       H  6.05102e+01  6.84517e+01  3.16295e+01
       H  6.22629e+01  6.81071e+01  3.14659e+01
       H  6.16950e+01  6.97983e+01  3.16539e+01
       C  3.94832e+01  1.24921e+01  1.24169e+01
       H  3.90045e+01  1.16479e+01  1.19021e+01
       H  4.01145e+01  1.30436e+01  1.17069e+01
       H  4.01031e+01  1.21142e+01  1.32412e+01
       H  3.87106e+01  1.31625e+01  1.28173e+01
       C  9.66561e+00  2.03031e+01  1.70263e+01
       H  9.41849e+00  2.13574e+01  1.68415e+01
       H  9.34473e+00  2.00239e+01  1.80391e+01
       H  1.07508e+01  2.01596e+01  1.69333e+01
       H  9.14843e+00  1.96716e+01  1.62912e+01
       C  6.73299e+01  1.03834e+01  8.91030e+00
       H  6.63242e+01  1.02990e+01  8.47662e+00
       H  6.76432e+01  9.40589e+00  9.30150e+00
       H  6.73156e+01  1.11174e+01  9.72740e+00
       H  6.80366e+01  1.07119e+01  8.13609e+00
       C  3.92299e+01  5.02439e+01  1.26081e+01
       H  3.98953e+01  4.95355e+01  1.20960e+01
       H  3.81858e+01  4.99337e+01  1.24658e+01
       H  3.93735e+01  5.12492e+01  1.21893e+01
       H  3.94652e+01  5.02569e+01  1.36810e+01
       C  3.36955e+01  6.51693e+01  3.91555e+01
       H  3.36790e+01  6.59213e+01  3.83550e+01
       H  3.36391e+01  6.41645e+01  3.87151e+01
       H  3.28367e+01  6.53254e+01  3.98224e+01
       H  3.46271e+01  6.52657e+01  3.97295e+01
       C  5.19401e+01  6.82952e+00  4.86919e+01
       H  5.25074e+01  6.02618e+00  4.82027e+01
       H  5.26397e+01  7.57474e+00  4.90947e+01
       H  5.13397e+01  6.41049e+00  4.95110e+01
       H  5.12743e+01  7.30596e+00  4.79596e+01
       C  1.13104e+01  3.47739e+01  1.48791e+01
       H  1.07493e+01  3.49175e+01  1.58125e+01
       H  1.14534e+01  3.57445e+01  1.43848e+01
       H  1.07495e+01  3.41033e+01  1.42140e+01
       H  1.22897e+01  3.43304e+01  1.51051e+01
       C  1.74778e+01  1.46018e+01  4.93427e+01
       H  1.70041e+01  1.46682e+01  4.83538e+01
       H  1.69941e+01  1.53104e+01  5.00285e+01
       H  1.85454e+01  1.48471e+01  4.92589e+01
       H  1.73672e+01  1.35803e+01  4.97302e+01
       C  2.69165e+01  2.48761e+01  4.79666e+01
       H  2.76330e+01  2.43912e+01  4.86435e+01
       H  2.65936e+01  2.41584e+01  4.72001e+01
       H  2.73957e+01  2.57379e+01  4.74824e+01
       H  2.60437e+01  2.52167e+01  4.85401e+01
       C  6.42236e+01  1.50670e+01  2.10578e+01
       H  6.48940e+01  1.57257e+01  2.04899e+01
       H  6.37774e+01  1.56299e+01  2.18884e+01
       H  6.47947e+01  1.42166e+01  2.14556e+01
       H  6.34282e+01  1.46948e+01  2.03972e+01
       C  2.01036e+01  5.94958e+01  1.48640e+01
       H  1.91648e+01  5.92576e+01  1.43490e+01
       H  2.02582e+01  5.87950e+01  1.56955e+01
       H  2.00522e+01  6.05192e+01  1.52527e+01
       H  2.09423e+01  5.94147e+01  1.41579e+01
       C  7.15493e+01  4.47182e+01  6.85812e+01
       H  7.19731e+01  4.57316e+01  6.85717e+01
       H  7.22271e+01  4.40328e+01  6.80545e+01
       H  7.05724e+01  4.47251e+01  6.80788e+01
       H  7.14244e+01  4.43833e+01  6.96200e+01
       C  5.75039e+01  6.26362e+01  3.29275e+01
       H  5.73943e+01  6.15893e+01  3.26135e+01
       H  5.79960e+01  6.32081e+01  3.21291e+01
       H  5.81133e+01  6.26827e+01  3.38402e+01
       H  5.65123e+01  6.30648e+01  3.31270e+01
       C  4.38948e+01  4.54551e+01  4.69049e+01
       H  4.40526e+01  4.62380e+01  4.61506e+01
       H  4.42137e+01  4.44855e+01  4.64982e+01
       H  4.28293e+01  4.54087e+01  4.71681e+01
       H  4.44838e+01  4.56877e+01  4.78026e+01
       C  2.47781e+01  5.98756e+00  7.22356e+01
       H  2.55265e+01  5.80757e+00  7.14519e+01
       H  2.50485e+01  6.89057e+00  7.27997e+01
       H  2.47466e+01  5.12617e+00  7.29166e+01
       H  2.37908e+01  6.12597e+00  7.17743e+01
       C  5.14326e+01  1.29482e+01  4.16046e-01
       H  5.07216e+01  1.24312e+01  1.07472e+00
       H  5.22401e+01  1.33846e+01  1.01975e+00
       H  5.09118e+01  1.37462e+01 -1.30218e-01
       H  5.18571e+01  1.22311e+01 -2.99678e-01
       C  2.73929e+01  3.58571e+01  4.77766e+01
       H  2.68534e+01  3.62987e+01  4.69277e+01
       H  2.67194e+01  3.57859e+01  4.86415e+01
       H  2.82529e+01  3.64904e+01  4.80335e+01
       H  2.77459e+01  3.48532e+01  4.75038e+01
       C  1.34870e+01  6.69033e+01  5.97297e+00
       H  1.35166e+01  6.72789e+01  7.00499e+00
       H  1.37169e+01  6.58287e+01  5.96754e+00
       H  1.42297e+01  6.74397e+01  5.36630e+00
       H  1.24851e+01  6.70655e+01  5.55192e+00
       C  1.54696e+01  5.10876e+01  2.00763e+01
       H  1.53669e+01  5.04036e+01  2.09299e+01
       H  1.49869e+01  5.06469e+01  1.91934e+01
       H  1.65350e+01  5.12532e+01  1.98663e+01
       H  1.49897e+01  5.20464e+01  2.03159e+01
       C  4.60169e+01  1.83076e+01  3.13793e+01
       H  4.55532e+01  1.73117e+01  3.13821e+01
       H  4.64022e+01  1.85365e+01  3.23819e+01
       H  4.52664e+01  1.90583e+01  3.10954e+01
       H  4.68457e+01  1.83231e+01  3.06586e+01
       C  3.54256e+01  5.88932e+01  5.87423e+01
       H  3.59260e+01  5.83814e+01  5.95756e+01
       H  3.46356e+01  5.82472e+01  5.83363e+01
       H  3.61596e+01  5.91140e+01  5.79553e+01
       H  3.49827e+01  5.98317e+01  5.91027e+01
       C  7.24320e+01  1.85162e+01  3.26591e+01
       H  7.24074e+01  1.75625e+01  3.32044e+01
       H  7.14130e+01  1.87951e+01  3.23579e+01
       H  7.30599e+01  1.84094e+01  3.17649e+01
       H  7.28478e+01  1.92975e+01  3.33098e+01
       C  6.50039e+01  3.65039e+01  1.33997e+01
       H  6.58829e+01  3.67405e+01  1.27849e+01
       H  6.45828e+01  3.74323e+01  1.38091e+01
       H  6.53013e+01  3.58419e+01  1.42244e+01
       H  6.42486e+01  3.60010e+01  1.27806e+01
       C  4.20233e+00  1.04634e+01  6.69075e+01
       H  3.18098e+00  1.08599e+01  6.68278e+01
       H  4.16210e+00  9.37729e+00  6.70670e+01
       H  4.71470e+00  1.09392e+01  6.77548e+01
       H  4.75157e+00  1.06773e+01  6.59806e+01
       C  9.44438e+00  2.89876e+01  6.21330e+01
       H  9.26672e+00  2.80149e+01  6.16545e+01
       H  8.67091e+00  2.91692e+01  6.28916e+01
       H  9.40679e+00  2.97813e+01  6.13744e+01
       H  1.04332e+01  2.89852e+01  6.26116e+01
       C  4.00642e+01  3.01830e+01  3.36674e+01
       H  4.00156e+01  3.08921e+01  3.28299e+01
       H  3.90719e+01  2.97394e+01  3.38292e+01
       H  4.03810e+01  3.07122e+01  3.45769e+01
       H  4.07865e+01  2.93897e+01  3.34348e+01
       C  3.31458e+01  4.99458e+01  1.87418e+01
       H  3.33222e+01  4.88765e+01  1.88996e+01
       H  3.31676e+01  5.04680e+01  1.97095e+01
       H  3.21611e+01  5.00907e+01  1.82748e+01
       H  3.39265e+01  5.03541e+01  1.80843e+01
       C  3.36291e+01  1.39826e+01  2.42115e+01
       H  3.27913e+01  1.34970e+01  2.36930e+01
       H  3.33805e+01  1.41051e+01  2.52745e+01
       H  3.38152e+01  1.49681e+01  2.37631e+01
       H  3.45295e+01  1.33606e+01  2.41155e+01
       C  5.57688e+01  2.17706e+01  1.13799e+00
       H  5.64784e+01  2.18021e+01  3.00107e-01
       H  5.60253e+01  2.25540e+01  1.86421e+00
       H  5.58217e+01  2.07879e+01  1.62599e+00
       H  5.47505e+01  2.19384e+01  7.62066e-01
       C  1.12912e+01  1.48909e+01  4.25932e+01
       H  1.12898e+01  1.55939e+01  4.34373e+01
       H  1.21494e+01  1.51034e+01  4.19411e+01
       H  1.03600e+01  1.50036e+01  4.20213e+01
       H  1.13656e+01  1.38628e+01  4.29729e+01
       C  4.72034e+01  4.42630e+01  6.99037e+01
       H  4.69052e+01  4.39977e+01  7.09271e+01
       H  4.74142e+01  4.53399e+01  6.98513e+01
       H  4.63892e+01  4.40150e+01  6.92091e+01
       H  4.81049e+01  4.36995e+01  6.96273e+01
       C  2.05197e+01  1.34061e+01  4.32560e+01
       H  2.06922e+01  1.42982e+01  4.26383e+01
       H  1.98111e+01  1.36486e+01  4.40598e+01
       H  2.14708e+01  1.30741e+01  4.36942e+01
       H  2.01038e+01  1.26037e+01  4.26314e+01
       C  2.22683e+01  2.74455e+01  2.75052e+01
       H  2.27430e+01  2.82254e+01  2.68942e+01
       H  2.15537e+01  2.79085e+01  2.81991e+01
       H  2.30380e+01  2.69084e+01  2.80761e+01
       H  2.17387e+01  2.67397e+01  2.68509e+01
       C  4.38243e+01  8.54231e+00  6.48339e+00
       H  4.34530e+01  7.51073e+00  6.55214e+00
       H  4.43826e+01  8.66869e+00  5.54573e+00
       H  4.44864e+01  8.75087e+00  7.33509e+00
       H  4.29755e+01  9.23939e+00  6.50092e+00
       C  7.02159e+01  1.25800e+01  9.73408e+00
       H  6.92582e+01  1.27657e+01  1.02393e+01
       H  7.02205e+01  1.30866e+01  8.75903e+00
       H  7.03469e+01  1.14992e+01  9.58689e+00
       H  7.10371e+01  1.29686e+01  1.03519e+01
       C  7.13491e-01  6.82350e+00  2.67377e+01
       H  7.62506e-01  7.91886e+00  2.68047e+01
       H  1.70920e+00  6.40008e+00  2.69274e+01
       H  3.77183e-01  6.53274e+00  2.57332e+01
       H  4.94536e-03  6.44232e+00  2.74857e+01
       C  2.52071e+01  5.66694e+01  2.52682e+01
       H  2.42529e+01  5.67295e+01  2.47272e+01
       H  2.50212e+01  5.67454e+01  2.63482e+01
       H  2.58608e+01  5.74929e+01  2.49503e+01
       H  2.56934e+01  5.57095e+01  2.50471e+01
       C  6.54581e+01  2.68622e+01  4.29906e+01
       H  6.62591e+01  2.64851e+01  4.36409e+01
       H  6.52580e+01  2.61318e+01  4.21949e+01
       H  6.57688e+01  2.78159e+01  4.25426e+01
       H  6.45467e+01  2.70162e+01  4.35841e+01
       C  5.40714e+01  2.02034e+01  2.44945e+01
       H  5.37134e+01  2.10756e+01  2.50583e+01
       H  5.45933e+01  2.05417e+01  2.35891e+01
       H  5.32164e+01  1.95746e+01  2.42109e+01
       H  5.47623e+01  1.96216e+01  2.51197e+01
       C  4.86293e+01  4.74345e+01  5.03227e+01
       H  4.77022e+01  4.68998e+01  5.00753e+01
       H  4.84706e+01  4.85154e+01  5.02076e+01
       H  4.94318e+01  4.71084e+01  4.96472e+01
       H  4.89131e+01  4.72145e+01  5.13609e+01
       C  4.04584e+01  7.08315e+01  6.15114e+01
       H  4.00234e+01  7.18324e+01  6.16359e+01
       H  4.14774e+01  7.08212e+01  6.19216e+01
       H  4.04907e+01  7.05768e+01  6.04433e+01
       H  3.98415e+01  7.00953e+01  6.20447e+01
       C  6.28438e+00  2.27504e+01  2.94345e+01
       H  6.68274e+00  2.31449e+01  2.84898e+01
       H  7.02254e+00  2.20765e+01  2.98902e+01
       H  5.35587e+00  2.21974e+01  2.92378e+01
       H  6.07641e+00  2.35831e+01  3.01202e+01
       C  2.84433e+01  5.91708e+01  6.56871e+01
       H  2.77606e+01  5.85633e+01  6.50773e+01
       H  2.94653e+01  5.87791e+01  6.55926e+01
       H  2.81307e+01  5.91281e+01  6.67393e+01
       H  2.84167e+01  6.02124e+01  6.53390e+01
       C  6.44533e+01  5.55580e+01  6.21388e+01
       H  6.44567e+01  5.53636e+01  6.10576e+01
       H  6.36579e+01  5.49686e+01  6.26147e+01
       H  6.42755e+01  5.66274e+01  6.23156e+01
       H  6.54227e+01  5.52715e+01  6.25689e+01
       C  6.01207e+01  5.21673e+01  2.92711e+01
       H  5.95748e+01  5.29020e+01  2.98785e+01
       H  5.98933e+01  5.11543e+01  2.96298e+01
       H  6.12003e+01  5.23521e+01  2.93559e+01
       H  5.98146e+01  5.22612e+01  2.82203e+01
       C  3.57653e+01  6.11448e+01  7.27841e+01
       H  3.61507e+01  6.12204e+01  7.17582e+01
       H  3.62905e+01  6.18645e+01  7.34269e+01
       H  3.59300e+01  6.01273e+01  7.31640e+01
       H  3.46894e+01  6.13673e+01  7.27882e+01
       C  3.77833e+01  4.31526e+01  6.92564e+01
       H  3.80785e+01  4.41186e+01  6.96880e+01
       H  3.82774e+01  4.23397e+01  6.98059e+01
       H  3.80838e+01  4.31162e+01  6.82004e+01
       H  3.66936e+01  4.30357e+01  6.93313e+01
       C  3.65663e+00  2.78586e+01  4.27565e+01
       H  3.76486e+00  2.89483e+01  4.28432e+01
       H  4.05619e+00  2.75268e+01  4.17885e+01
       H  2.59381e+00  2.75896e+01  4.28256e+01
       H  4.21156e+00  2.73697e+01  4.35688e+01
       C  5.82487e+01  5.49308e+01  5.22364e+01
       H  5.79796e+01  5.38851e+01  5.24383e+01
       H  5.81599e+01  5.55168e+01  5.31613e+01
       H  5.75719e+01  5.53427e+01  5.14755e+01
       H  5.92834e+01  5.49785e+01  5.18706e+01
       C  1.15804e+01  2.78988e+01  5.38922e+01
       H  1.06923e+01  2.80072e+01  5.45304e+01
       H  1.23230e+01  2.86644e+01  5.41565e+01
       H  1.12893e+01  2.80200e+01  5.28401e+01
       H  1.20160e+01  2.69018e+01  5.40381e+01
       C  1.55422e+01  6.73756e+00  2.81893e+01
       H  1.65972e+01  6.56824e+00  2.79343e+01
       H  1.52074e+01  7.68757e+00  2.77509e+01
       H  1.54314e+01  6.77899e+00  2.92814e+01
       H  1.49326e+01  5.91541e+00  2.77903e+01
       C  5.91643e+01  2.01406e+01  5.70716e+01
       H  5.91014e+01  1.91722e+01  5.75866e+01
       H  5.81660e+01  2.05963e+01  5.70250e+01
       H  5.95452e+01  1.99897e+01  5.60525e+01
       H  5.98445e+01  2.08044e+01  5.76228e+01
       C  4.12679e+01  4.14466e+01  5.05473e+01
       H  4.18746e+01  4.20235e+01  4.98361e+01
       H  4.19131e+01  4.10562e+01  5.13460e+01
       H  4.07862e+01  4.06098e+01  5.00234e+01
       H  4.04978e+01  4.20972e+01  5.09836e+01
       C  1.63580e+01  4.02202e+01  3.04974e+01
       H  1.67712e+01  3.94984e+01  2.97795e+01
       H  1.66741e+01  4.12351e+01  3.02198e+01
       H  1.67254e+01  3.99854e+01  3.15055e+01
       H  1.52611e+01  4.01618e+01  3.04850e+01
       C  1.97821e+01  3.32395e+01  7.74103e+00
       H  1.92659e+01  3.25166e+01  8.38736e+00
       H  1.99032e+01  3.41899e+01  8.27849e+00
       H  1.91890e+01  3.34063e+01  6.83147e+00
       H  2.07699e+01  3.28451e+01  7.46677e+00
       C  1.13698e+01  1.71868e+01  2.97777e+01
       H  1.10980e+01  1.82089e+01  2.94810e+01
       H  1.20463e+01  1.72242e+01  3.06425e+01
       H  1.18735e+01  1.66844e+01  2.89403e+01
       H  1.04622e+01  1.66299e+01  3.00462e+01
       C  4.77370e+01  4.42786e+01  1.61732e+01
       H  4.76263e+01  4.31862e+01  1.62079e+01
       H  4.75740e+01  4.46953e+01  1.71764e+01
       H  4.69985e+01  4.46995e+01  1.54775e+01
       H  4.87493e+01  4.45332e+01  1.58308e+01
       C  6.95100e+01  1.56133e+01  3.21207e+01
       H  7.00973e+01  1.54358e+01  3.30318e+01
       H  7.01770e+01  1.59438e+01  3.13129e+01
       H  6.87589e+01  1.63905e+01  3.23151e+01
       H  6.90068e+01  1.46832e+01  3.18226e+01
       C  2.13578e+01  6.22038e+01  3.29960e+01
       H  2.22448e+01  6.22532e+01  3.23499e+01
       H  2.15882e+01  6.26577e+01  3.39695e+01
       H  2.10682e+01  6.11541e+01  3.31408e+01
       H  2.05300e+01  6.27503e+01  3.25241e+01
       C  2.30940e+01  4.91872e+01  2.58452e+01
       H  2.37529e+01  4.86301e+01  2.51655e+01
       H  2.36457e+01  5.00324e+01  2.62788e+01
       H  2.27514e+01  4.85223e+01  2.66498e+01
       H  2.22261e+01  4.95641e+01  2.52870e+01
       C  7.93546e+00  2.10069e+01  5.85181e+01
       H  6.83750e+00  2.09738e+01  5.85293e+01
       H  8.32977e+00  2.03447e+01  5.93009e+01
       H  8.27271e+00  2.20356e+01  5.87048e+01
       H  8.30200e+00  2.06737e+01  5.75376e+01
       C  5.13427e+01  1.35993e+01  6.79777e+01
       H  5.14713e+01  1.28616e+01  6.87813e+01
       H  5.19828e+01  1.33295e+01  6.71266e+01
       H  5.16245e+01  1.45948e+01  6.83466e+01
       H  5.02921e+01  1.36113e+01  6.76568e+01
       C  4.01062e+01  5.81613e+00  1.16300e+00
       H  3.93720e+01  5.40326e+00  1.86895e+00
       H  3.97521e+01  6.78617e+00  7.90344e-01
       H  4.02303e+01  5.12245e+00  3.19913e-01
       H  4.10686e+01  5.95101e+00  1.67248e+00
       C  3.70980e+01  3.70896e+01  5.23837e+01
       H  3.67188e+01  3.81204e+01  5.23898e+01
       H  3.75998e+01  3.68906e+01  5.14269e+01
       H  3.62603e+01  3.63906e+01  5.25104e+01
       H  3.78128e+01  3.69567e+01  5.32075e+01
       C  3.36313e+01  3.90090e+01  4.10122e+01
       H  3.45943e+01  3.85138e+01  4.11926e+01
       H  3.28436e+01  3.84853e+01  4.15710e+01
       H  3.34009e+01  3.89830e+01  3.99394e+01
       H  3.36895e+01  4.00551e+01  4.13457e+01
       C  5.00338e+01  3.03976e+01  2.41084e+00
       H  4.99034e+01  3.04604e+01  3.49979e+00
       H  5.08212e+01  3.10957e+01  2.09560e+00
       H  4.90905e+01  3.06609e+01  1.91326e+00
       H  5.03202e+01  2.93737e+01  2.13477e+00
       C  5.49195e+01  4.26535e+01  5.05340e+01
       H  5.43828e+01  4.17383e+01  5.02495e+01
       H  5.56303e+01  4.24257e+01  5.13400e+01
       H  5.41997e+01  4.34067e+01  5.08826e+01
       H  5.54652e+01  4.30437e+01  4.96641e+01
       C  2.55595e+01  6.56873e+01  1.35929e+01
       H  2.45835e+01  6.61726e+01  1.34566e+01
       H  2.57371e+01  6.55162e+01  1.46634e+01
       H  2.63500e+01  6.63349e+01  1.31897e+01
       H  2.55676e+01  6.47256e+01  1.30621e+01
       C  5.52491e+01  4.60855e+01  5.94814e+01
       H  5.53792e+01  4.67076e+01  5.85852e+01
       H  5.41881e+01  4.58242e+01  5.95947e+01
       H  5.55848e+01  4.66434e+01  6.03659e+01
       H  5.58442e+01  4.51677e+01  5.93791e+01
       C  1.76403e+01  6.79755e+00  7.21641e+01
       H  1.86938e+01  6.66189e+00  7.24443e+01
       H  1.75304e+01  6.66858e+00  7.10788e+01
       H  1.73130e+01  7.80705e+00  7.24479e+01
       H  1.70239e+01  6.05271e+00  7.26856e+01
       C  6.28822e+01  5.31988e+01  2.15901e+01
       H  6.35784e+01  5.32810e+01  2.07440e+01
       H  6.33065e+01  5.25295e+01  2.23510e+01
       H  6.19243e+01  5.27930e+01  2.12371e+01
       H  6.27200e+01  5.41928e+01  2.20286e+01
       C  6.52729e+01  6.52852e+01  2.01731e+00
       H  6.52585e+01  6.43021e+01  1.52744e+00
       H  6.51251e+01  6.60715e+01  1.26461e+00
       H  6.62410e+01  6.54321e+01  2.51518e+00
       H  6.44669e+01  6.53350e+01  2.76200e+00
       C  5.92619e+01  5.03407e+01  6.36142e+01
       H  5.90085e+01  4.94520e+01  6.42082e+01
       H  5.84657e+01  5.05307e+01  6.28817e+01
       H  6.02109e+01  5.01706e+01  6.30877e+01
       H  5.93627e+01  5.12091e+01  6.42793e+01
       C  4.90108e+01  5.35518e+01  4.88406e+01
       H  4.91604e+01  5.42305e+01  4.79899e+01
       H  4.98908e+01  5.29039e+01  4.89514e+01
       H  4.81206e+01  5.29330e+01  4.86632e+01
       H  4.88711e+01  5.41398e+01  4.97579e+01
       C  1.04384e+01  8.40191e+00  2.30370e+01
       H  9.39001e+00  8.56723e+00  2.27528e+01
       H  1.07673e+01  7.42693e+00  2.26524e+01
       H  1.05352e+01  8.41449e+00  2.41313e+01
       H  1.10613e+01  9.19789e+00  2.26074e+01
       C  2.16208e+01  2.84616e+01  3.34119e+01
       H  2.17911e+01  2.82580e+01  3.23460e+01
       H  2.25407e+01  2.82554e+01  3.39758e+01
       H  2.08119e+01  2.78175e+01  3.37827e+01
       H  2.13394e+01  2.95153e+01  3.35434e+01
       C  6.54398e+01  5.16553e+00  1.74735e+00
       H  6.57407e+01  4.56643e+00  2.61739e+00
       H  6.43718e+01  5.41210e+00  1.82389e+00
       H  6.56189e+01  4.59131e+00  8.28102e-01
       H  6.60278e+01  6.09300e+00  1.72121e+00
       C  5.93610e+01  2.65663e+01  1.18062e+01
       H  5.98519e+01  2.68346e+01  1.27516e+01
       H  5.95921e+01  2.55217e+01  1.15573e+01
       H  5.97260e+01  2.72231e+01  1.10049e+01
       H  5.82741e+01  2.66859e+01  1.19112e+01
       C  5.55965e+01  5.18601e+01  2.34220e+01
       H  5.51162e+01  5.11193e+01  2.27684e+01
       H  5.60534e+01  5.13494e+01  2.42805e+01
       H  5.48435e+01  5.25755e+01  2.37798e+01
       H  5.63727e+01  5.23963e+01  2.28592e+01
       C  2.83875e+01  7.04857e+01  5.25881e+01
       H  2.80405e+01  6.94575e+01  5.24175e+01
       H  2.79494e+01  7.08703e+01  5.35192e+01
       H  2.80770e+01  7.11212e+01  5.17475e+01
       H  2.94830e+01  7.04940e+01  5.26681e+01
       C  3.48798e+01  3.60881e+01  1.40421e+01
       H  3.45497e+01  3.67082e+01  1.48867e+01
       H  3.53345e+01  3.67280e+01  1.32738e+01
       H  3.40157e+01  3.55610e+01  1.36153e+01
       H  3.56191e+01  3.53552e+01  1.43928e+01
       C  1.66788e+01  2.60526e+01  6.62063e+01
       H  1.63315e+01  2.70937e+01  6.62530e+01
       H  1.65133e+01  2.55675e+01  6.71780e+01
       H  1.77505e+01  2.60345e+01  6.59658e+01
       H  1.61198e+01  2.55145e+01  6.54286e+01
       C  4.55482e+00  6.73584e+01  5.99093e+01
       H  4.12367e+00  6.83686e+01  5.99082e+01
       H  5.64258e+00  6.74259e+01  6.00480e+01
       H  4.33725e+00  6.68670e+01  5.89512e+01
       H  4.11555e+00  6.67734e+01  6.07288e+01
       C  2.22007e+01  6.65628e+01  4.72177e+01
       H  2.32650e+01  6.62924e+01  4.71843e+01
       H  2.20626e+01  6.74243e+01  4.78853e+01
       H  2.16182e+01  6.57109e+01  4.75941e+01
       H  2.18573e+01  6.68236e+01  4.62075e+01
       C  3.37488e+01  3.52695e+01  4.08416e+01
       H  3.27394e+01  3.54907e+01  4.12153e+01
       H  3.38586e+01  3.56818e+01  3.98293e+01
       H  3.39010e+01  3.41830e+01  4.08149e+01
       H  3.44954e+01  3.57238e+01  4.15079e+01
       C  6.09259e+01  3.10825e+01  5.31364e+01
       H  6.09916e+01  3.15974e+01  5.41045e+01
       H  6.01786e+01  3.02798e+01  5.31984e+01
       H  6.19047e+01  3.06529e+01  5.28830e+01
       H  6.06289e+01  3.18001e+01  5.23594e+01
       C  5.91554e+01  3.21389e+01  5.87910e+01
       H  5.84651e+01  3.25213e+01  5.80267e+01
       H  5.85901e+01  3.18718e+01  5.96942e+01
       H  5.98947e+01  3.29131e+01  5.90372e+01
       H  5.96715e+01  3.12490e+01  5.84057e+01
       C  3.56941e+01  6.38314e+01  3.14995e+01
       H  3.56158e+01  6.39763e+01  3.04134e+01
       H  3.65784e+01  6.43611e+01  3.18791e+01
       H  3.57881e+01  6.27594e+01  3.17195e+01
       H  3.47927e+01  6.42283e+01  3.19861e+01
       C  9.52048e+00  4.68716e+01  6.42072e+01
       H  9.54987e+00  4.72174e+01  6.52495e+01
       H  8.54678e+00  4.71235e+01  6.37652e+01
       H  9.66524e+00  4.57833e+01  6.41782e+01
       H  1.03199e+01  4.73628e+01  6.36358e+01
       C  6.02510e+01  3.77375e+01  2.86002e+01
       H  5.97695e+01  3.71507e+01  2.93943e+01
       H  5.96921e+01  3.86702e+01  2.84438e+01
       H  6.02597e+01  3.71556e+01  2.76685e+01
       H  6.12828e+01  3.79739e+01  2.88937e+01
       C  4.67309e+01  3.01202e+01  1.74442e+01
       H  4.57910e+01  2.98393e+01  1.79386e+01
       H  4.75800e+01  2.97449e+01  1.80315e+01
       H  4.67926e+01  3.12145e+01  1.73695e+01
       H  4.67601e+01  2.96822e+01  1.64373e+01
       C  5.17961e+01  1.94441e+01  4.24025e+01
       H  5.22410e+01  1.99349e+01  4.32788e+01
       H  5.24057e+01  1.85747e+01  4.21209e+01
       H  5.17606e+01  2.01533e+01  4.15644e+01
       H  5.07772e+01  1.91135e+01  4.26459e+01
       C  5.13324e+01  2.72710e+01  9.16357e+00
       H  5.11797e+01  2.73854e+01  1.02454e+01
       H  5.23727e+01  2.75191e+01  8.91235e+00
       H  5.06544e+01  2.79466e+01  8.62455e+00
       H  5.11230e+01  2.62328e+01  8.87200e+00
       C  6.15948e+01  3.30811e+01  3.17569e+01
       H  6.09842e+01  3.38007e+01  3.23191e+01
       H  6.26427e+01  3.31617e+01  3.20762e+01
       H  6.15215e+01  3.32993e+01  3.06827e+01
       H  6.12306e+01  3.20627e+01  3.19495e+01
       C  5.48315e+01  3.37006e+00  3.57966e+00
       H  5.51122e+01  4.42072e+00  3.42476e+00
       H  5.37381e+01  3.27267e+00  3.53466e+00
       H  5.51885e+01  3.03686e+00  4.56365e+00
       H  5.52868e+01  2.74990e+00  2.79564e+00
       C  7.20305e+01  1.60381e+01  5.14452e+01
       H  7.26272e+01  1.57574e+01  5.05667e+01
       H  7.24905e+01  1.69050e+01  5.19386e+01
       H  7.19935e+01  1.51943e+01  5.21476e+01
       H  7.10107e+01  1.62957e+01  5.11283e+01
       C  1.46993e+01  2.89683e+01  2.41849e+01
       H  1.56846e+01  2.85295e+01  2.43963e+01
       H  1.48259e+01  2.99430e+01  2.36939e+01
       H  1.41503e+01  2.91034e+01  2.51265e+01
       H  1.41354e+01  2.82968e+01  2.35240e+01
       C  4.75761e+01  1.71741e+01  5.72548e+01