LAMMPS data file. CGCMM style. atom_style full generated by VMD/TopoTools v1.5 on Wed Nov 30 12:14:08 GMT 2016
 2000 atoms
 1600 bonds
 2400 angles
 0 dihedrals
 0 impropers
 2 atom types
 1 bond types
 1 angle types
 0 dihedral types
 0 improper types
 0.0 29.14  xlo xhi
 0.0 29.14  ylo yhi
 0.0 29.14  zlo zhi

# Pair Coeffs
#
# 1  CT
# 2  HC

# Bond Coeffs
#
# 1  CT-HC

# Angle Coeffs
#
# 1  HC-CT-HC

 Masses

 1 12.011000 # CT
 2 2.014000 # HC

 Atoms

1 1 1 -0.240000 15.068195 22.042643 7.240201 # CT
2 1 2 0.060000 15.796664 21.244156 7.114928 # HC
3 1 2 0.060000 15.161049 22.464951 8.238698 # HC
4 1 2 0.060000 14.065062 21.642548 7.107471 # HC
5 1 2 0.060000 15.249975 22.818912 6.499735 # HC
6 2 1 -0.240000 18.874348 1.467331 24.985976 # CT
7 2 2 0.060000 19.673003 1.956499 24.432075 # HC
8 2 2 0.060000 18.377924 2.194716 25.625066 # HC
9 2 2 0.060000 19.292725 0.671669 25.599044 # HC
10 2 2 0.060000 18.153744 1.046436 24.287759 # HC
11 3 1 -0.240000 5.541197 12.226262 20.186720 # CT
12 3 2 0.060000 4.717197 11.930758 19.540467 # HC
13 3 2 0.060000 6.235574 12.849586 19.627015 # HC
14 3 2 0.060000 6.058279 11.338119 20.544208 # HC
15 3 2 0.060000 5.153775 12.786571 21.035181 # HC
16 4 1 -0.240000 10.675102 25.125115 21.994435 # CT
17 4 2 0.060000 10.469731 24.743310 22.992428 # HC
18 4 2 0.060000 10.741084 24.294411 21.294765 # HC
19 4 2 0.060000 11.617268 25.669402 22.001101 # HC
20 4 2 0.060000 9.872361 25.793327 21.689431 # HC
21 5 1 -0.240000 28.147910 11.959157 11.435894 # CT
22 5 2 0.060000 29.100138 12.393767 11.733078 # HC
23 5 2 0.060000 28.316195 11.208742 10.666142 # HC
24 5 2 0.060000 27.498885 12.740250 11.045214 # HC
25 5 2 0.060000 27.676409 11.493878 12.299103 # HC
26 6 1 -0.240000 15.017948 22.896554 2.683326 # CT
27 6 2 0.060000 16.006488 22.449764 2.599017 # HC
28 6 2 0.060000 14.498699 22.810706 1.730975 # HC
29 6 2 0.060000 15.116198 23.947028 2.949447 # HC
30 6 2 0.060000 14.450397 22.378753 3.453843 # HC
31 7 1 -0.240000 20.295248 2.807581 7.430617 # CT
32 7 2 0.060000 20.741057 3.205696 8.339848 # HC
33 7 2 0.060000 21.081399 2.551162 6.723384 # HC
34 7 2 0.060000 19.640744 3.556595 6.989515 # HC
35 7 2 0.060000 19.717799 1.916893 7.669687 # HC
36 8 1 -0.240000 18.656570 16.114921 21.042008 # CT
37 8 2 0.060000 17.772257 16.647128 20.697499 # HC
38 8 2 0.060000 19.508694 16.388728 20.423237 # HC
39 8 2 0.060000 18.485648 15.042743 20.969966 # HC
40 8 2 0.060000 18.859699 16.381057 22.077304 # HC
41 9 1 -0.240000 24.859910 0.946383 8.548510 # CT
42 9 2 0.060000 25.025918 0.926394 9.623676 # HC
43 9 2 0.060000 23.856278 0.587462 8.329740 # HC
44 9 2 0.060000 25.589335 0.305881 8.056915 # HC
45 9 2 0.060000 24.968104 1.965759 8.183688 # HC
46 10 1 -0.240000 16.974213 23.772099 20.253594 # CT
47 10 2 0.060000 16.502004 22.929572 19.752487 # HC
48 10 2 0.060000 17.599264 24.311658 19.544969 # HC
49 10 2 0.060000 17.588196 23.407962 21.074812 # HC
50 10 2 0.060000 16.207432 24.439202 20.642113 # HC
51 11 1 -0.240000 12.444144 2.066283 11.898499 # CT
52 11 2 0.060000 11.868747 2.965894 12.107207 # HC
53 11 2 0.060000 12.515158 1.463499 12.801588 # HC
54 11 2 0.060000 13.443101 2.343247 11.567824 # HC
55 11 2 0.060000 11.949609 1.492489 11.117396 # HC
56 12 1 -0.240000 23.763910 9.418793 0.835234 # CT
57 12 2 0.060000 22.968869 9.290910 0.103457 # HC
58 12 2 0.060000 23.851343 8.516604 1.437209 # HC
59 12 2 0.060000 23.530976 10.263816 1.479941 # HC
60 12 2 0.060000 24.704442 9.603840 0.320369 # HC
61 13 1 -0.240000 5.048177 2.504615 8.079502 # CT
62 13 2 0.060000 5.501839 2.029829 7.211914 # HC
63 13 2 0.060000 4.039295 2.120873 8.216842 # HC
64 13 2 0.060000 5.008886 3.580951 7.924820 # HC
65 13 2 0.060000 5.642655 2.286832 8.964428 # HC
66 14 1 -0.240000 20.903393 1.635986 10.176952 # CT
67 14 2 0.060000 21.066170 2.237040 9.284663 # HC
68 14 2 0.060000 21.400829 0.675018 10.062668 # HC
69 14 2 0.060000 19.836149 1.477459 10.317767 # HC
70 14 2 0.060000 21.310403 2.154391 11.042704 # HC
71 15 1 -0.240000 8.370222 25.394239 3.616381 # CT
72 15 2 0.060000 9.292619 24.819110 3.567890 # HC
73 15 2 0.060000 8.569568 26.361666 4.072789 # HC
74 15 2 0.060000 7.637765 24.855335 4.213925 # HC
75 15 2 0.060000 7.980920 25.540853 2.610957 # HC
76 16 1 -0.240000 24.702704 21.544130 4.792474 # CT
77 16 2 0.060000 24.115699 21.774720 5.679150 # HC
78 16 2 0.060000 24.911304 22.462086 4.246759 # HC
79 16 2 0.060000 24.143929 20.862120 4.154821 # HC
80 16 2 0.060000 25.639867 21.077600 5.089129 # HC
81 17 1 -0.240000 1.681804 6.762542 23.972831 # CT
82 17 2 0.060000 0.869632 7.177590 23.379490 # HC
83 17 2 0.060000 1.731712 7.277659 24.929976 # HC
84 17 2 0.060000 2.622392 6.892622 23.441471 # HC
85 17 2 0.060000 1.503512 5.702325 24.140395 # HC
86 18 1 -0.240000 23.088269 8.336678 20.429336 # CT
87 18 2 0.060000 23.116888 7.577745 21.208530 # HC
88 18 2 0.060000 22.231396 8.160135 19.782371 # HC
89 18 2 0.060000 24.002672 8.287737 19.841593 # HC
90 18 2 0.060000 23.002125 9.321082 20.884809 # HC
91 19 1 -0.240000 26.282623 16.214662 24.450883 # CT
92 19 2 0.060000 26.979434 16.497697 23.664571 # HC
93 19 2 0.060000 26.076519 17.077638 25.080769 # HC
94 19 2 0.060000 26.719250 15.421318 25.054150 # HC
95 19 2 0.060000 25.355302 15.861998 24.004082 # HC
96 20 1 -0.240000 2.087146 17.766891 9.944079 # CT
97 20 2 0.060000 1.245679 17.770112 9.254250 # HC
98 20 2 0.060000 2.032051 16.885152 10.579267 # HC
99 20 2 0.060000 2.052938 18.661800 10.562089 # HC
100 20 2 0.060000 3.017910 17.750503 9.380750 # HC
101 21 1 -0.240000 8.984523 18.950872 7.120782 # CT
102 21 2 0.060000 8.935841 19.697798 7.910512 # HC
103 21 2 0.060000 9.839015 19.156472 6.479272 # HC
104 21 2 0.060000 8.071023 18.986858 6.530703 # HC
105 21 2 0.060000 9.092208 17.962374 7.562600 # HC
106 22 1 -0.240000 8.851562 8.005240 16.819974 # CT
107 22 2 0.060000 8.910207 6.924893 16.704420 # HC
108 22 2 0.060000 9.176553 8.486598 15.899845 # HC
109 22 2 0.060000 9.495213 8.317802 17.639722 # HC
110 22 2 0.060000 7.824309 8.291688 17.035907 # HC
111 23 1 -0.240000 9.178309 23.108431 28.103019 # CT
112 23 2 0.060000 9.473698 23.692183 27.233582 # HC
113 23 2 0.060000 9.803023 22.220277 28.172860 # HC
114 23 2 0.060000 8.136109 22.811894 28.003753 # HC
115 23 2 0.060000 9.300391 23.709333 29.001874 # HC
116 24 1 -0.240000 22.693208 11.991577 16.259732 # CT
117 24 2 0.060000 23.418280 11.743322 15.487346 # HC
118 24 2 0.060000 22.935838 12.962722 16.686310 # HC
119 24 2 0.060000 22.722092 11.234807 17.041036 # HC
120 24 2 0.060000 21.696634 12.025458 15.824277 # HC
121 25 1 -0.240000 23.284434 19.227877 6.259159 # CT
122 25 2 0.060000 22.828026 18.567398 6.993598 # HC
123 25 2 0.060000 24.059864 19.822201 6.738166 # HC
124 25 2 0.060000 22.525709 19.888254 5.844180 # HC
125 25 2 0.060000 23.724133 18.633696 5.460697 # HC
126 26 1 -0.240000 24.099181 27.743943 12.520622 # CT
127 26 2 0.060000 23.839349 28.312430 11.629975 # HC
128 26 2 0.060000 23.368506 27.940749 13.302507 # HC
129 26 2 0.060000 25.087717 28.040963 12.864925 # HC
130 26 2 0.060000 24.101161 26.681653 12.285116 # HC
131 27 1 -0.240000 15.670501 5.170646 5.082916 # CT
132 27 2 0.060000 15.538693 5.286106 6.156805 # HC
133 27 2 0.060000 16.598975 4.638327 4.886613 # HC
134 27 2 0.060000 15.709132 6.152070 4.614640 # HC
135 27 2 0.060000 14.835236 4.606099 4.673590 # HC
136 28 1 -0.240000 4.051105 8.204432 6.882898 # CT
137 28 2 0.060000 4.225914 7.565496 7.746115 # HC
138 28 2 0.060000 3.314215 7.739726 6.230974 # HC
139 28 2 0.060000 4.982944 8.340669 6.337843 # HC
140 28 2 0.060000 3.681356 9.171822 7.216622 # HC
141 29 1 -0.240000 25.735864 3.820616 3.564794 # CT
142 29 2 0.060000 25.093564 3.248758 2.898183 # HC
143 29 2 0.060000 26.114212 3.169875 4.350511 # HC
144 29 2 0.060000 25.164960 4.632841 4.010133 # HC
145 29 2 0.060000 26.570708 4.230993 3.000389 # HC
146 30 1 -0.240000 15.345404 19.623218 5.242113 # CT
147 30 2 0.060000 15.591228 19.049955 6.133674 # HC
148 30 2 0.060000 14.648885 19.056795 4.627306 # HC
149 30 2 0.060000 16.253204 19.819085 4.675099 # HC
150 30 2 0.060000 14.888312 20.567021 5.532338 # HC
151 31 1 -0.240000 13.598838 25.824872 15.789311 # CT
152 31 2 0.060000 14.201604 25.142049 16.384599 # HC
153 31 2 0.060000 12.709643 25.308119 15.433980 # HC
154 31 2 0.060000 14.179992 26.173821 14.938156 # HC
155 31 2 0.060000 13.304110 26.675490 16.400467 # HC
156 32 1 -0.240000 20.469868 3.146644 18.961245 # CT
157 32 2 0.060000 21.332482 3.022838 18.309700 # HC
158 32 2 0.060000 20.535187 4.105616 19.471215 # HC
159 32 2 0.060000 20.452953 2.345071 19.696883 # HC
160 32 2 0.060000 19.558859 3.113054 18.367225 # HC
161 33 1 -0.240000 4.695741 13.848121 6.045275 # CT
162 33 2 0.060000 3.679050 14.226248 5.959833 # HC
163 33 2 0.060000 4.669721 12.775896 6.228634 # HC
164 33 2 0.060000 5.199364 14.345298 6.871803 # HC
165 33 2 0.060000 5.234840 14.045025 5.120868 # HC
166 34 1 -0.240000 6.457996 5.262000 19.013402 # CT
167 34 2 0.060000 6.671439 4.224971 19.264306 # HC
168 34 2 0.060000 5.793903 5.687266 19.763129 # HC
169 34 2 0.060000 5.979563 5.307903 18.037202 # HC
170 34 2 0.060000 7.387039 5.827871 18.988959 # HC
171 35 1 -0.240000 11.230104 9.764611 18.810039 # CT
172 35 2 0.060000 11.425155 10.476515 18.010608 # HC
173 35 2 0.060000 10.195252 9.432806 18.755735 # HC
174 35 2 0.060000 11.408098 10.241447 19.771764 # HC
175 35 2 0.060000 11.891884 8.907686 18.702077 # HC
176 36 1 -0.240000 25.571302 6.035157 8.927974 # CT
177 36 2 0.060000 25.076945 5.070121 9.018853 # HC
178 36 2 0.060000 26.050751 6.287363 9.871628 # HC
179 36 2 0.060000 24.835706 6.797556 8.679748 # HC
180 36 2 0.060000 26.321792 5.985618 8.141692 # HC
181 37 1 -0.240000 8.547967 23.540357 5.629094 # CT
182 37 2 0.060000 8.198248 22.562836 5.303380 # HC
183 37 2 0.060000 8.758082 23.513290 6.696372 # HC
184 37 2 0.060000 7.780379 24.285257 5.429339 # HC
185 37 2 0.060000 9.455134 23.800067 5.087314 # HC
186 38 1 -0.240000 28.184912 17.731535 27.065943 # CT
187 38 2 0.060000 28.915492 17.660704 26.262714 # HC
188 38 2 0.060000 28.560950 18.396661 27.840646 # HC
189 38 2 0.060000 28.013152 16.743514 27.488179 # HC
190 38 2 0.060000 27.250064 18.125247 26.672271 # HC
191 39 1 -0.240000 21.953550 24.466888 13.071520 # CT
192 39 2 0.060000 21.627609 25.171301 13.834086 # HC
193 39 2 0.060000 22.678693 24.948715 12.418854 # HC
194 39 2 0.060000 21.095595 24.144579 12.485004 # HC
195 39 2 0.060000 22.412293 23.602967 13.548094 # HC
196 40 1 -0.240000 17.182366 18.135795 18.404349 # CT
197 40 2 0.060000 16.818812 18.432654 19.386003 # HC
198 40 2 0.060000 17.776613 18.941788 17.978663 # HC
199 40 2 0.060000 16.336710 17.925500 17.752727 # HC
200 40 2 0.060000 17.797317 17.243259 18.499969 # HC
201 41 1 -0.240000 10.914597 14.173055 18.913832 # CT
202 41 2 0.060000 11.389604 14.601936 18.033848 # HC
203 41 2 0.060000 10.545550 14.972711 19.552829 # HC
204 41 2 0.060000 11.639815 13.575692 19.462637 # HC
205 41 2 0.060000 10.083437 13.541888 18.606050 # HC
206 42 1 -0.240000 5.664167 26.321073 2.701965 # CT
207 42 2 0.060000 5.803046 27.197120 2.071731 # HC
208 42 2 0.060000 4.794850 26.467281 3.339832 # HC
209 42 2 0.060000 6.547477 26.175502 3.320465 # HC
210 42 2 0.060000 5.511299 25.444393 2.075873 # HC
211 43 1 -0.240000 5.899795 19.866071 8.025519 # CT
212 43 2 0.060000 5.367230 18.942463 8.242918 # HC
213 43 2 0.060000 5.710420 20.160026 6.995135 # HC
214 43 2 0.060000 6.967356 19.711376 8.168180 # HC
215 43 2 0.060000 5.554205 20.650419 8.695813 # HC
216 44 1 -0.240000 18.550161 7.536251 12.497749 # CT
217 44 2 0.060000 18.069970 7.327711 13.451619 # HC
218 44 2 0.060000 17.891141 8.149231 11.886267 # HC
219 44 2 0.060000 18.755875 6.600002 11.982881 # HC
220 44 2 0.060000 19.483642 8.068046 12.670194 # HC
221 45 1 -0.240000 13.793898 23.108029 23.681142 # CT
222 45 2 0.060000 13.911221 24.188355 23.736572 # HC
223 45 2 0.060000 14.672377 22.625584 24.104798 # HC
224 45 2 0.060000 13.681578 22.808276 22.641189 # HC
225 45 2 0.060000 12.910444 22.809880 24.241984 # HC
226 46 1 -0.240000 25.626637 14.507137 5.466661 # CT
227 46 2 0.060000 24.681924 14.574416 4.931001 # HC
228 46 2 0.060000 25.441600 14.566813 6.537251 # HC
229 46 2 0.060000 26.274284 15.327546 5.164249 # HC
230 46 2 0.060000 26.108754 13.559805 5.234165 # HC
231 47 1 -0.240000 1.798553 4.512282 26.643461 # CT
232 47 2 0.060000 2.537501 4.418475 27.436617 # HC
233 47 2 0.060000 1.813441 3.616421 26.026067 # HC
234 47 2 0.060000 2.033280 5.379619 26.029784 # HC
235 47 2 0.060000 0.810004 4.634614 27.081335 # HC
236 48 1 -0.240000 3.947047 11.586355 24.540316 # CT
237 48 2 0.060000 3.586783 12.445584 25.102344 # HC
238 48 2 0.060000 4.465229 11.928720 23.646875 # HC
239 48 2 0.060000 3.103938 10.961172 24.253463 # HC
240 48 2 0.060000 4.632221 11.009935 25.158543 # HC
241 49 1 -0.240000 15.930159 11.745332 14.106021 # CT
242 49 2 0.060000 15.213558 11.039722 13.690643 # HC
243 49 2 0.060000 15.716723 12.743414 13.728875 # HC
244 49 2 0.060000 16.936960 11.454566 13.813144 # HC
245 49 2 0.060000 15.853422 11.743644 15.191395 # HC
246 50 1 -0.240000 12.473125 19.384545 7.546125 # CT
247 50 2 0.060000 13.088909 19.698539 8.386458 # HC
248 50 2 0.060000 12.623234 18.322462 7.363344 # HC
249 50 2 0.060000 12.754866 19.948557 6.659286 # HC
250 50 2 0.060000 11.425513 19.568610 7.775376 # HC
251 51 1 -0.240000 13.260211 6.303644 9.260718 # CT
252 51 2 0.060000 13.718056 6.402830 8.278638 # HC
253 51 2 0.060000 14.036749 6.169748 10.011067 # HC
254 51 2 0.060000 12.597605 5.440574 9.266500 # HC
255 51 2 0.060000 12.688439 7.201387 9.486688 # HC
256 52 1 -0.240000 21.638065 8.420098 0.775081 # CT
257 52 2 0.060000 20.724601 8.065815 0.301786 # HC
258 52 2 0.060000 22.448195 7.724408 0.566114 # HC
259 52 2 0.060000 21.486599 8.487966 1.850452 # HC
260 52 2 0.060000 21.892882 9.402181 0.382003 # HC
261 53 1 -0.240000 5.009510 6.203971 16.737542 # CT
262 53 2 0.060000 5.231928 5.948862 15.703428 # HC
263 53 2 0.060000 4.681327 5.312689 17.268460 # HC
264 53 2 0.060000 4.220995 6.953286 16.764731 # HC
265 53 2 0.060000 5.903752 6.601042 17.213561 # HC
266 54 1 -0.240000 18.673652 17.551567 27.589832 # CT
267 54 2 0.060000 18.143937 18.272714 28.208937 # HC
268 54 2 0.060000 18.470301 16.545318 27.950491 # HC
269 54 2 0.060000 19.743031 17.745957 27.640921 # HC
270 54 2 0.060000 18.337368 17.642255 26.558999 # HC
271 55 1 -0.240000 8.310518 5.373351 16.526988 # CT
272 55 2 0.060000 8.876265 5.898739 15.760281 # HC
273 55 2 0.060000 8.701780 5.633203 17.508494 # HC
274 55 2 0.060000 8.401027 4.300008 16.373000 # HC
275 55 2 0.060000 7.263023 5.661426 16.466201 # HC
276 56 1 -0.240000 9.111383 11.000687 10.793221 # CT
277 56 2 0.060000 9.384240 11.937045 11.275636 # HC
278 56 2 0.060000 9.654706 10.180978 11.258881 # HC
279 56 2 0.060000 9.365081 11.049838 9.736248 # HC
280 56 2 0.060000 8.041534 10.834867 10.902098 # HC
281 57 1 -0.240000 0.987119 18.610850 27.055893 # CT
282 57 2 0.060000 0.912627 19.693499 27.135036 # HC
283 57 2 0.060000 1.334803 18.343035 26.060226 # HC
284 57 2 0.060000 0.009427 18.166296 27.230418 # HC
285 57 2 0.060000 1.691594 18.240551 27.797865 # HC
286 58 1 -0.240000 17.227110 3.575455 3.035823 # CT
287 58 2 0.060000 17.197706 2.507152 3.240284 # HC
288 58 2 0.060000 17.338381 4.120759 3.970823 # HC
289 58 2 0.060000 16.302418 3.876954 2.547956 # HC
290 58 2 0.060000 18.069902 3.796980 2.384243 # HC
291 59 1 -0.240000 27.837268 5.903231 3.781431 # CT
292 59 2 0.060000 28.030627 6.411187 4.724051 # HC
293 59 2 0.060000 28.748824 5.419474 3.436456 # HC
294 59 2 0.060000 27.508293 6.628113 3.039615 # HC
295 59 2 0.060000 27.061348 5.154164 3.925566 # HC
296 60 1 -0.240000 10.304225 22.415051 10.086434 # CT
297 60 2 0.060000 11.330255 22.085522 9.936052 # HC
298 60 2 0.060000 10.159061 23.380199 9.605415 # HC
299 60 2 0.060000 10.105471 22.507450 11.152233 # HC
300 60 2 0.060000 9.622107 21.687067 9.652058 # HC
301 61 1 -0.240000 25.797146 10.771959 17.033579 # CT
302 61 2 0.060000 25.563597 9.904080 17.646915 # HC
303 61 2 0.060000 24.877321 11.185608 16.625194 # HC
304 61 2 0.060000 26.453989 10.474138 16.218822 # HC
305 61 2 0.060000 26.293670 11.524008 17.643345 # HC
306 62 1 -0.240000 21.362662 8.184729 9.804223 # CT
307 62 2 0.060000 22.000080 8.744102 9.122504 # HC
308 62 2 0.060000 21.964874 7.783004 10.616578 # HC
309 62 2 0.060000 20.886554 7.367004 9.266993 # HC
310 62 2 0.060000 20.599145 8.844765 10.210821 # HC
311 63 1 -0.240000 19.519196 18.241060 20.513900 # CT
312 63 2 0.060000 19.784712 17.781527 19.564020 # HC
313 63 2 0.060000 20.045648 19.187548 20.618639 # HC
314 63 2 0.060000 19.800484 17.577447 21.329047 # HC
315 63 2 0.060000 18.445968 18.417722 20.543923 # HC
316 64 1 -0.240000 15.342149 27.876798 23.640772 # CT
317 64 2 0.060000 14.713022 27.126125 24.114723 # HC
318 64 2 0.060000 15.468989 28.721668 24.314618 # HC
319 64 2 0.060000 14.871977 28.214980 22.719609 # HC
320 64 2 0.060000 16.314589 27.444456 23.414128 # HC
321 65 1 -0.240000 2.712593 9.189240 11.728585 # CT
322 65 2 0.060000 2.401156 10.199563 11.471298 # HC
323 65 2 0.060000 3.362453 9.221044 12.600728 # HC
324 65 2 0.060000 3.251229 8.751285 10.890709 # HC
325 65 2 0.060000 1.835577 8.585061 11.951601 # HC
326 66 1 -0.240000 11.350442 23.309111 25.940022 # CT
327 66 2 0.060000 11.227437 22.228446 25.971246 # HC
328 66 2 0.060000 11.196201 23.720620 26.935427 # HC
329 66 2 0.060000 10.622662 23.737316 25.253766 # HC
330 66 2 0.060000 12.355435 23.550086 25.599656 # HC
331 67 1 -0.240000 25.695772 22.371740 24.811161 # CT
332 67 2 0.060000 26.084904 22.246554 25.819549 # HC
333 67 2 0.060000 26.506536 22.263881 24.093533 # HC
334 67 2 0.060000 25.253906 23.361244 24.713146 # HC
335 67 2 0.060000 24.937755 21.615315 24.618393 # HC
336 68 1 -0.240000 23.791876 20.644256 11.885045 # CT
337 68 2 0.060000 24.654259 20.564148 11.226395 # HC
338 68 2 0.060000 24.116653 20.976090 12.869102 # HC
339 68 2 0.060000 23.309516 19.672690 11.970831 # HC
340 68 2 0.060000 23.087075 21.364068 11.473884 # HC
341 69 1 -0.240000 15.009640 17.088594 27.348906 # CT
342 69 2 0.060000 15.662690 16.501306 26.706597 # HC
343 69 2 0.060000 15.582191 17.888396 27.814165 # HC
344 69 2 0.060000 14.588251 16.447814 28.120788 # HC
345 69 2 0.060000 14.205438 17.516858 26.754116 # HC
346 70 1 -0.240000 1.685574 11.163674 16.947338 # CT
347 70 2 0.060000 0.597869 11.135393 16.953523 # HC
348 70 2 0.060000 2.069867 10.508530 17.726484 # HC
349 70 2 0.060000 2.022975 12.181799 17.130513 # HC
350 70 2 0.060000 2.051606 10.828991 15.978868 # HC
351 71 1 -0.240000 22.981741 21.685212 20.600614 # CT
352 71 2 0.060000 23.099592 20.814733 21.242734 # HC
353 71 2 0.060000 23.654256 21.601663 19.749318 # HC
354 71 2 0.060000 23.219075 22.585786 21.163294 # HC
355 71 2 0.060000 21.954073 21.738693 20.247107 # HC
356 72 1 -0.240000 4.664659 10.989516 21.688655 # CT
357 72 2 0.060000 4.063838 11.340273 22.525270 # HC
358 72 2 0.060000 4.434712 11.580107 20.804184 # HC
359 72 2 0.060000 4.439856 9.942771 21.494339 # HC
360 72 2 0.060000 5.720212 11.094896 21.930794 # HC
361 73 1 -0.240000 6.340712 2.928816 11.278210 # CT
362 73 2 0.060000 6.227873 4.008834 11.347276 # HC
363 73 2 0.060000 6.261042 2.621640 10.237413 # HC
364 73 2 0.060000 5.559170 2.444535 11.860133 # HC
365 73 2 0.060000 7.314728 2.640234 11.668004 # HC
366 74 1 -0.240000 22.775542 7.834493 23.167296 # CT
367 74 2 0.060000 23.603414 7.183926 22.892831 # HC
368 74 2 0.060000 22.121713 7.314849 23.864749 # HC
369 74 2 0.060000 22.213849 8.102855 22.274854 # HC
370 74 2 0.060000 23.163152 8.736330 23.636739 # HC
371 75 1 -0.240000 16.479637 16.072115 19.712666 # CT
372 75 2 0.060000 16.465344 16.548740 20.690708 # HC
373 75 2 0.060000 17.362788 16.394575 19.164919 # HC
374 75 2 0.060000 15.586412 16.353830 19.158812 # HC
375 75 2 0.060000 16.504002 14.991340 19.836192 # HC
376 76 1 -0.240000 6.894740 15.662050 11.991969 # CT
377 76 2 0.060000 5.960004 15.408261 11.496186 # HC
378 76 2 0.060000 6.992225 15.076536 12.903908 # HC
379 76 2 0.060000 6.898113 16.721688 12.239207 # HC
380 76 2 0.060000 7.728615 15.441734 11.328614 # HC
381 77 1 -0.240000 8.337983 12.732145 3.477280 # CT
382 77 2 0.060000 7.796188 13.571731 3.046591 # HC
383 77 2 0.060000 8.301858 12.795691 4.562923 # HC
384 77 2 0.060000 9.374204 12.761120 3.146558 # HC
385 77 2 0.060000 7.879718 11.800045 3.153073 # HC
386 78 1 -0.240000 4.803168 7.065815 11.686893 # CT
387 78 2 0.060000 5.140988 7.619617 10.813325 # HC
388 78 2 0.060000 3.743870 7.254650 11.848730 # HC
389 78 2 0.060000 5.366522 7.387507 12.560458 # HC
390 78 2 0.060000 4.961279 6.001508 11.525094 # HC
391 79 1 -0.240000 19.567922 17.351961 6.657989 # CT
392 79 2 0.060000 20.542668 17.044612 7.031284 # HC
393 79 2 0.060000 19.552851 17.270480 5.573049 # HC
394 79 2 0.060000 19.377697 18.383619 6.946895 # HC
395 79 2 0.060000 18.798471 16.709167 7.080706 # HC
396 80 1 -0.240000 28.052298 6.429020 13.221222 # CT
397 80 2 0.060000 28.532559 7.170935 12.586515 # HC
398 80 2 0.060000 28.714254 5.574327 13.344825 # HC
399 80 2 0.060000 27.122416 6.103742 12.759180 # HC
400 80 2 0.060000 27.839954 6.867037 14.194350 # HC
401 81 1 -0.240000 8.597272 24.546877 13.145198 # CT
402 81 2 0.060000 8.582848 23.572192 12.661748 # HC
403 81 2 0.060000 8.451117 25.324448 12.398215 # HC
404 81 2 0.060000 9.556250 24.693109 13.638095 # HC
405 81 2 0.060000 7.798904 24.597783 13.882724 # HC
406 82 1 -0.240000 9.523722 19.253390 10.532785 # CT
407 82 2 0.060000 9.522868 18.385716 11.189355 # HC
408 82 2 0.060000 8.710933 19.165656 9.814706 # HC
409 82 2 0.060000 10.472288 19.305859 10.002275 # HC
410 82 2 0.060000 9.388810 20.156322 11.124765 # HC
411 83 1 -0.240000 3.367986 8.492724 23.107024 # CT
412 83 2 0.060000 3.522463 9.167361 22.267415 # HC
413 83 2 0.060000 4.253428 7.875282 23.243850 # HC
414 83 2 0.060000 2.508896 7.855585 22.907057 # HC
415 83 2 0.060000 3.187158 9.072626 24.009765 # HC
416 84 1 -0.240000 20.669529 5.336050 26.581944 # CT
417 84 2 0.060000 19.898720 5.512541 25.834518 # HC
418 84 2 0.060000 21.047249 4.320653 26.480651 # HC
419 84 2 0.060000 20.247798 5.468641 27.576194 # HC
420 84 2 0.060000 21.484341 6.042335 26.436442 # HC
421 85 1 -0.240000 15.634599 2.576207 1.181642 # CT
422 85 2 0.060000 15.904321 2.434235 0.137116 # HC
423 85 2 0.060000 16.537483 2.610793 1.787915 # HC
424 85 2 0.060000 15.008554 1.749123 1.510229 # HC
425 85 2 0.060000 15.088047 3.510646 1.291336 # HC
426 86 1 -0.240000 15.290208 14.566960 20.270619 # CT
427 86 2 0.060000 15.397136 13.899189 21.123022 # HC
428 86 2 0.060000 14.250480 14.582418 19.950171 # HC
429 86 2 0.060000 15.916423 14.214988 19.453343 # HC
430 86 2 0.060000 15.596784 15.571226 20.555906 # HC
431 87 1 -0.240000 13.071743 16.045121 16.650587 # CT
432 87 2 0.060000 13.504485 16.401150 17.583281 # HC
433 87 2 0.060000 13.239471 14.973975 16.558516 # HC
434 87 2 0.060000 13.540587 16.558889 15.813809 # HC
435 87 2 0.060000 12.002454 16.246454 16.646712 # HC
436 88 1 -0.240000 19.784825 12.151126 1.183482 # CT
437 88 2 0.060000 19.319823 11.405985 0.541237 # HC
438 88 2 0.060000 20.224145 11.660193 2.049475 # HC
439 88 2 0.060000 19.033119 12.865096 1.513869 # HC
440 88 2 0.060000 20.562195 12.673237 0.629386 # HC
441 89 1 -0.240000 21.558655 17.120037 20.133636 # CT
442 89 2 0.060000 21.357857 16.062047 19.977821 # HC
443 89 2 0.060000 21.032504 17.462000 21.022562 # HC
444 89 2 0.060000 21.215986 17.685377 19.269380 # HC
445 89 2 0.060000 22.628242 17.270752 20.264778 # HC
446 90 1 -0.240000 10.440798 25.723947 5.745714 # CT
447 90 2 0.060000 9.932677 26.083974 6.637977 # HC
448 90 2 0.060000 10.467321 26.515184 4.999253 # HC
449 90 2 0.060000 9.905782 24.865274 5.345203 # HC
450 90 2 0.060000 11.457390 25.431353 6.000385 # HC
451 91 1 -0.240000 22.791464 17.901746 23.072857 # CT
452 91 2 0.060000 22.862408 18.940292 22.756107 # HC
453 91 2 0.060000 22.448403 17.859856 24.104611 # HC
454 91 2 0.060000 23.769807 17.431644 22.996579 # HC
455 91 2 0.060000 22.085262 17.375178 22.434160 # HC
456 92 1 -0.240000 7.134199 2.951118 28.369960 # CT
457 92 2 0.060000 7.085637 3.973760 28.001467 # HC
458 92 2 0.060000 8.101058 2.780091 28.838890 # HC
459 92 2 0.060000 7.006586 2.259860 27.539390 # HC
460 92 2 0.060000 6.343543 2.790737 29.100075 # HC
461 93 1 -0.240000 25.408332 20.493951 8.326064 # CT
462 93 2 0.060000 26.155014 19.874055 8.818137 # HC
463 93 2 0.060000 25.240819 21.394730 8.913005 # HC
464 93 2 0.060000 24.476361 19.939096 8.239251 # HC
465 93 2 0.060000 25.761096 20.767928 7.333884 # HC
466 94 1 -0.240000 25.731858 25.743306 1.015537 # CT
467 94 2 0.060000 24.693755 25.492254 0.807560 # HC
468 94 2 0.060000 26.066093 26.509904 0.319421 # HC
469 94 2 0.060000 26.349794 24.855051 0.900959 # HC
470 94 2 0.060000 25.817820 26.116007 2.034180 # HC
471 95 1 -0.240000 23.255125 19.713831 25.417928 # CT
472 95 2 0.060000 23.442163 20.267213 26.335929 # HC
473 95 2 0.060000 22.725467 18.792454 25.651358 # HC
474 95 2 0.060000 24.202454 19.476064 24.938338 # HC
475 95 2 0.060000 22.650437 20.319554 24.746080 # HC
476 96 1 -0.240000 19.297296 21.610347 19.042318 # CT
477 96 2 0.060000 18.531250 21.798331 18.292800 # HC
478 96 2 0.060000 18.881469 20.998787 19.840469 # HC
479 96 2 0.060000 19.642816 22.556834 19.453106 # HC
480 96 2 0.060000 20.133642 21.087451 18.582935 # HC
481 97 1 -0.240000 3.733159 4.314537 9.049949 # CT
482 97 2 0.060000 3.183290 4.588096 8.151756 # HC
483 97 2 0.060000 4.669247 4.868145 9.084873 # HC
484 97 2 0.060000 3.943438 3.247044 9.035482 # HC
485 97 2 0.060000 3.136698 4.554845 9.927681 # HC
486 98 1 -0.240000 8.943012 11.624100 13.469257 # CT
487 98 2 0.060000 8.957190 11.939000 14.510688 # HC
488 98 2 0.060000 8.151881 12.152598 12.941275 # HC
489 98 2 0.060000 8.761074 10.552599 13.416774 # HC
490 98 2 0.060000 9.901867 11.852183 13.008278 # HC
491 99 1 -0.240000 26.209688 2.642318 0.966237 # CT
492 99 2 0.060000 25.714336 2.577539 1.932866 # HC
493 99 2 0.060000 26.653313 3.629222 0.851436 # HC
494 99 2 0.060000 25.482190 2.477316 0.174093 # HC
495 99 2 0.060000 26.988897 1.885221 0.906523 # HC
496 100 1 -0.240000 23.435798 10.652544 4.837381 # CT
497 100 2 0.060000 22.490115 10.402672 5.314025 # HC
498 100 2 0.060000 24.257800 10.277387 5.443626 # HC
499 100 2 0.060000 23.519406 11.733212 4.741801 # HC
500 100 2 0.060000 23.475896 10.196930 3.850094 # HC
501 101 1 -0.240000 21.858322 20.413688 9.376856 # CT
502 101 2 0.060000 22.298970 20.908788 10.239784 # HC
503 101 2 0.060000 22.488175 19.578623 9.077000 # HC
504 101 2 0.060000 21.778461 21.121424 8.554236 # HC
505 101 2 0.060000 20.867701 20.045920 9.636365 # HC
506 102 1 -0.240000 11.354821 27.773147 20.797082 # CT
507 102 2 0.060000 11.206029 27.897886 21.867709 # HC
508 102 2 0.060000 12.387855 28.004063 20.545130 # HC
509 102 2 0.060000 10.690929 28.445773 20.257830 # HC
510 102 2 0.060000 11.134479 26.744903 20.517636 # HC
511 103 1 -0.240000 13.873091 14.361769 5.727487 # CT
512 103 2 0.060000 13.259950 15.075638 6.273739 # HC
513 103 2 0.060000 14.912072 14.467615 6.032899 # HC
514 103 2 0.060000 13.787698 14.552680 4.659671 # HC
515 103 2 0.060000 13.532672 13.351159 5.943612 # HC
516 104 1 -0.240000 6.763993 10.455136 26.153398 # CT
517 104 2 0.060000 7.039249 11.496884 26.001946 # HC
518 104 2 0.060000 5.681681 10.354965 26.103109 # HC
519 104 2 0.060000 7.113732 10.125830 27.129723 # HC
520 104 2 0.060000 7.221286 9.842857 25.378850 # HC
521 105 1 -0.240000 1.981496 26.590773 23.729504 # CT
522 105 2 0.060000 2.482488 26.198694 22.846768 # HC
523 105 2 0.060000 2.538051 27.443103 24.113877 # HC
524 105 2 0.060000 1.931618 25.816361 24.492241 # HC
525 105 2 0.060000 0.973846 26.904931 23.465166 # HC
526 106 1 -0.240000 8.909991 26.246959 18.689626 # CT
527 106 2 0.060000 9.931909 26.539461 18.457104 # HC
528 106 2 0.060000 8.217745 26.942169 18.219053 # HC
529 106 2 0.060000 8.764252 26.263975 19.767791 # HC
530 106 2 0.060000 8.726035 25.242256 18.314579 # HC
531 107 1 -0.240000 14.737483 14.493941 15.570474 # CT
532 107 2 0.060000 14.778845 13.680341 14.849165 # HC
533 107 2 0.060000 15.748823 14.793110 15.838149 # HC
534 107 2 0.060000 14.209564 14.161732 16.462051 # HC
535 107 2 0.060000 14.212713 15.340572 15.132569 # HC
536 108 1 -0.240000 24.091803 12.368884 20.920197 # CT
537 108 2 0.060000 24.778002 12.335607 21.763977 # HC
538 108 2 0.060000 24.399537 11.639743 20.173461 # HC
539 108 2 0.060000 24.104297 13.364592 20.481585 # HC
540 108 2 0.060000 23.085390 12.135608 21.261729 # HC
541 109 1 -0.240000 23.200775 12.847305 23.194030 # CT
542 109 2 0.060000 22.435909 12.815704 22.420776 # HC
543 109 2 0.060000 23.096899 11.979826 23.842607 # HC
544 109 2 0.060000 23.084941 13.755601 23.781866 # HC
545 109 2 0.060000 24.185338 12.838095 22.730912 # HC
546 110 1 -0.240000 13.872733 25.771095 12.891468 # CT
547 110 2 0.060000 13.248244 25.473455 12.051608 # HC
548 110 2 0.060000 14.696594 25.068315 12.997835 # HC
549 110 2 0.060000 13.278077 25.773443 13.802703 # HC
550 110 2 0.060000 14.268017 26.769142 12.713760 # HC
551 111 1 -0.240000 3.976465 18.559713 25.351203 # CT
552 111 2 0.060000 4.568458 19.196978 26.004946 # HC
553 111 2 0.060000 4.494389 18.432217 24.402804 # HC
554 111 2 0.060000 3.006811 19.021185 25.175745 # HC
555 111 2 0.060000 3.836185 17.588490 25.821283 # HC
556 112 1 -0.240000 23.695787 14.564395 11.452812 # CT
557 112 2 0.060000 23.347159 14.943946 10.494511 # HC
558 112 2 0.060000 23.617689 13.479151 11.463217 # HC
559 112 2 0.060000 23.084539 14.979681 12.251489 # HC
560 112 2 0.060000 24.733731 14.854783 11.602057 # HC
561 113 1 -0.240000 18.590086 12.385749 7.014731 # CT
562 113 2 0.060000 18.868799 11.360000 7.247323 # HC
563 113 2 0.060000 17.551472 12.415022 6.691642 # HC
564 113 2 0.060000 19.228377 12.763388 6.218526 # HC
565 113 2 0.060000 18.711685 13.004596 7.901393 # HC
566 114 1 -0.240000 20.474128 7.878686 16.815276 # CT
567 114 2 0.060000 20.748309 8.170869 17.826906 # HC