2002
# CELL(abcABC):   55.06662    55.06662    55.06662    90.00000    90.00000    90.00000  Step:         100  Bead:       0 x_centroid{angstrom}  cell{atomic_unit}
       C  1.38913e+01  2.41688e+01  6.37297e+00
       D  1.37680e+01  2.33695e+01  5.62948e+00
       D  1.45716e+01  2.38223e+01  7.16221e+00
       D  1.29186e+01  2.44237e+01  6.81432e+00
       D  1.43125e+01  2.50587e+01  5.88505e+00
       C  1.86374e+01  2.06422e-01  2.57312e+01
       D  1.94247e+01  8.70172e-01  2.53492e+01
       D  1.83716e+01  4.95055e-01  2.67557e+01
       D  1.89991e+01 -8.30377e-01  2.57353e+01
       D  1.77526e+01  2.90065e-01  2.50853e+01
       C  5.90062e+00  1.35788e+01  1.93340e+01
       D  5.13364e+00  1.29956e+01  1.88081e+01
       D  6.46915e+00  1.41759e+01  1.86092e+01
       D  6.58206e+00  1.28952e+01  1.98584e+01
       D  5.41570e+00  1.42444e+01  2.00609e+01
       C  1.05486e+01  2.53389e+01  2.22763e+01
       D  1.05544e+01  2.44110e+01  2.28632e+01
       D  1.05155e+01  2.50950e+01  2.12067e+01
       D  1.14589e+01  2.59140e+01  2.24919e+01
       D  9.66588e+00  2.59364e+01  2.25400e+01
       C  2.89729e+01  1.16660e+01  1.29150e+01
       D  2.97539e+01  1.23808e+01  1.26221e+01
       D  2.87972e+01  1.09576e+01  1.20944e+01
       D  2.80441e+01  1.22092e+01  1.31352e+01
       D  2.92944e+01  1.11142e+01  1.38087e+01
       C  1.60801e+01  2.38876e+01  2.26874e+00
       D  1.69808e+01  2.32886e+01  2.46022e+00
       D  1.53207e+01  2.32568e+01  1.78703e+00
       D  1.63356e+01  2.47294e+01  1.61108e+00
       D  1.56845e+01  2.42750e+01  3.21752e+00
       C  1.98706e+01  3.72240e+00  6.92598e+00
       D  2.06785e+01  3.95186e+00  7.63385e+00
       D  2.02980e+01  3.28858e+00  6.01200e+00
       D  1.93295e+01  4.64499e+00  6.67595e+00
       D  1.91774e+01  3.00226e+00  7.38126e+00
       C  1.93460e+01  1.46588e+01  2.00946e+01
       D  1.96767e+01  1.54291e+01  2.08039e+01
       D  1.94392e+01  1.50330e+01  1.90661e+01
       D  1.82954e+01  1.44118e+01  2.02986e+01
       D  1.99719e+01  1.37637e+01  2.02134e+01
       C  2.54341e+01  1.85745e-01  7.50977e+00
       D  2.56852e+01  6.28082e-01  8.48327e+00
       D  2.45231e+01 -4.19470e-01  7.60527e+00
       D  2.62642e+01 -4.47858e-01  7.16967e+00
       D  2.52628e+01  9.83527e-01  6.77707e+00
       C  1.66472e+01  2.44341e+01  2.03793e+01
       D  1.58588e+01  2.37649e+01  2.00091e+01
       D  1.75589e+01  2.42913e+01  1.97845e+01
       D  1.68583e+01  2.42022e+01  2.14312e+01
       D  1.63137e+01  2.54766e+01  2.02919e+01
       C  1.08035e+01  1.77497e+00  1.09971e+01
       D  1.09545e+01  2.86274e+00  1.09672e+01
       D  1.01214e+01  1.52361e+00  1.18207e+01
       D  1.17690e+01  1.27544e+00  1.11547e+01
       D  1.03696e+01  1.43789e+00  1.00460e+01
       C  2.43860e+01  9.24869e+00  1.61790e+00
       D  2.38459e+01  9.52384e+00  7.01795e-01
       D  2.38828e+01  8.39781e+00  2.09589e+00
       D  2.43959e+01  1.01045e+01  2.30490e+00
       D  2.54170e+01  8.96675e+00  1.36444e+00
       C  4.47041e+00  1.83261e+00  6.96242e+00
       D  5.13403e+00  1.26463e+00  6.29639e+00
       D  3.49214e+00  1.33604e+00  7.01582e+00
       D  4.34383e+00  2.85089e+00  6.57072e+00
       D  4.91255e+00  1.88161e+00  7.96684e+00
       C  2.04706e+01  3.11802e-01  1.07815e+01
       D  2.08788e+01  1.09793e+00  1.01331e+01
       D  2.10882e+01 -5.91856e-01  1.06949e+01
       D  1.94429e+01  8.13863e-02  1.04702e+01
       D  2.04734e+01  6.60428e-01  1.18231e+01
       C  8.66202e+00  2.53484e+01  2.99286e+00
       D  9.37137e+00  2.47081e+01  3.53477e+00
       D  8.62310e+00  2.63382e+01  3.46749e+00
       D  7.66563e+00  2.48871e+01  3.01861e+00
       D  8.99005e+00  2.54619e+01  1.95070e+00
       C  2.51678e+01  2.12537e+01  4.72306e+00
       D  2.47232e+01  2.16760e+01  5.63428e+00
       D  2.45678e+01  2.15497e+01  3.85203e+00
       D  2.51895e+01  2.01579e+01  4.79540e+00
       D  2.61922e+01  2.16342e+01  4.61061e+00
       C  7.66657e-01  6.54393e+00  2.47514e+01
       D  5.17947e-01  6.61150e+00  2.36838e+01
       D  8.35959e-01  7.55531e+00  2.51750e+01
       D  1.73048e+00  6.03124e+00  2.48731e+01
       D -1.52401e-02  5.97773e+00  2.52755e+01
       C  2.15541e+01  9.24045e+00  1.97412e+01
       D  2.12917e+01  8.17558e+00  1.96823e+01
       D  2.06397e+01  9.84743e+00  1.97028e+01
       D  2.22048e+01  9.50347e+00  1.88970e+01
       D  2.20838e+01  9.43444e+00  2.06831e+01
       C  2.68916e+01  1.63033e+01  2.40833e+01
       D  2.75520e+01  1.67178e+01  2.33098e+01
       D  2.65324e+01  1.71139e+01  2.47312e+01
       D  2.74438e+01  1.55700e+01  2.46861e+01
       D  2.60347e+01  1.58109e+01  2.36054e+01
       C  5.55987e-01  1.80266e+01  1.01194e+01
       D  3.48931e-02  1.72713e+01  9.51545e+00
       D  5.14467e-01  1.77449e+01  1.11801e+01
       D  7.19802e-02  1.90028e+01  9.98192e+00
       D  1.60482e+00  1.80882e+01  9.80094e+00
       C  8.88627e+00  1.72523e+01  6.34905e+00
       D  9.03399e+00  1.83043e+01  6.06986e+00
       D  9.83093e+00  1.67047e+01  6.23410e+00
       D  8.12273e+00  1.68009e+01  5.70216e+00
       D  8.56084e+00  1.71975e+01  7.39568e+00
       C  7.89784e+00  7.95626e+00  1.58276e+01
       D  7.75949e+00  7.17214e+00  1.65831e+01
       D  7.94709e+00  7.50059e+00  1.48292e+01
       D  8.83372e+00  8.49403e+00  1.60312e+01
       D  7.05414e+00  8.65814e+00  1.58703e+01
       C  8.18478e+00  2.28664e+01  2.82313e+01
       D  8.44345e+00  2.32403e+01  2.72313e+01
       D  8.88825e+00  2.20728e+01  2.85176e+01
       D  7.16351e+00  2.24625e+01  2.82189e+01
       D  8.24478e+00  2.36894e+01  2.89563e+01
       C  2.25962e+01  1.07928e+01  1.60285e+01
       D  2.33725e+01  1.05070e+01  1.53081e+01
       D  2.22697e+01  1.18193e+01  1.58184e+01
       D  2.30024e+01  1.07362e+01  1.70468e+01
       D  2.17433e+01  1.01085e+01  1.59356e+01
       C  2.23417e+01  1.91991e+01  6.56313e+00
       D  2.23758e+01  1.85217e+01  7.42697e+00
       D  2.30338e+01  2.00355e+01  6.72506e+00
       D  2.13208e+01  1.95853e+01  6.44125e+00
       D  2.26396e+01  1.86535e+01  5.65783e+00
       C  2.40539e+01  2.82952e+01  1.14540e+01
       D  2.37930e+01  2.83171e+01  1.03876e+01
       D  2.31387e+01  2.83694e+01  1.20563e+01
       D  2.47173e+01  2.91391e+01  1.16866e+01
       D  2.45664e+01  2.73524e+01  1.16859e+01
       C  1.56205e+01  5.85963e+00  5.32595e+00
       D  1.52642e+01  6.80266e+00  5.76256e+00
       D  1.63815e+01  5.41695e+00  5.98225e+00
       D  1.60588e+01  6.05435e+00  4.33873e+00
       D  1.47792e+01  5.16266e+00  5.21630e+00
       C  3.67374e+00  7.71198e+00  6.78869e+00
       D  4.15620e+00  7.38303e+00  7.71875e+00
       D  3.61087e+00  6.86713e+00  6.09062e+00
       D  4.26696e+00  8.51501e+00  6.33125e+00
       D  2.66291e+00  8.08160e+00  7.00903e+00
       C  2.53467e+01  3.55291e+00  3.03608e+00
       D  2.43459e+01  3.23263e+00  3.35615e+00
       D  2.60945e+01  2.84617e+00  3.41918e+00
       D  2.55524e+01  4.55852e+00  3.42612e+00
       D  2.53931e+01  3.57615e+00  1.93992e+00
       C  1.58169e+01  1.86077e+01  4.11114e+00
       D  1.60496e+01  1.76241e+01  4.54042e+00
       D  1.51530e+01  1.84783e+01  3.24637e+00
       D  1.67457e+01  1.90978e+01  3.78944e+00
       D  1.53173e+01  1.92291e+01  4.86653e+00
       C  1.41495e+01  2.65416e+01  1.64280e+01
       D  1.42023e+01  2.54495e+01  1.63227e+01
       D  1.32401e+01  2.69148e+01  1.59379e+01
       D  1.50318e+01  2.69987e+01  1.59597e+01
       D  1.41214e+01  2.68034e+01  1.74944e+01
       C  2.08053e+01  4.08166e+00  1.85406e+01
       D  2.18298e+01  3.86429e+00  1.82103e+01
       D  2.07761e+01  5.07253e+00  1.90136e+01
       D  2.04857e+01  3.32069e+00  1.92652e+01
       D  2.01298e+01  4.06917e+00  1.76744e+01
       C  5.02979e+00  1.32701e+01  5.06963e+00
       D  4.16860e+00  1.39449e+01  5.16692e+00
       D  4.70739e+00  1.22331e+01  5.23043e+00
       D  5.79155e+00  1.35352e+01  5.81366e+00
       D  5.45685e+00  1.33639e+01  4.06283e+00
       C  5.73108e+00  3.78668e+00  1.97043e+01
       D  4.94262e+00  3.17458e+00  2.01628e+01
       D  5.43614e+00  4.84461e+00  1.97305e+01
       D  5.87859e+00  3.47315e+00  1.86619e+01
       D  6.66849e+00  3.65486e+00  2.02614e+01
       C  1.15557e+01  8.84323e+00  1.87948e+01
       D  1.11824e+01  9.45242e+00  1.79612e+01
       D  1.07777e+01  8.75506e+00  1.95650e+01
       D  1.24429e+01  9.32331e+00  1.92283e+01
       D  1.18227e+01  7.84347e+00  1.84269e+01
       C  2.55173e+01  5.80890e+00  9.06477e+00
       D  2.47185e+01  5.13592e+00  9.40188e+00
       D  2.58640e+01  6.40919e+00  9.91332e+00
       D  2.51326e+01  6.47199e+00  8.27772e+00
       D  2.63550e+01  5.21728e+00  8.67277e+00
       C  8.19446e+00  2.40301e+01  6.47377e+00
       D  7.89934e+00  2.34419e+01  5.59438e+00
       D  7.90348e+00  2.34943e+01  7.38686e+00
       D  7.69297e+00  2.50067e+01  6.44196e+00
       D  9.28284e+00  2.41778e+01  6.47129e+00
       C  2.74236e+01  1.66203e+01  2.77691e+01
       D  2.77856e+01  1.71938e+01  2.69052e+01
       D  2.77678e+01  1.70961e+01  2.86974e+01
       D  2.78180e+01  1.55962e+01  2.77179e+01
       D  2.63253e+01  1.65971e+01  2.77547e+01
       C  2.10106e+01  2.37278e+01  1.19981e+01
       D  2.08923e+01  2.44230e+01  1.28401e+01
       D  2.11850e+01  2.42963e+01  1.10757e+01
       D  2.00990e+01  2.31246e+01  1.18898e+01
       D  2.18685e+01  2.30687e+01  1.21871e+01
       C  1.66449e+01  1.87067e+01  1.75477e+01
       D  1.59705e+01  1.87295e+01  1.84138e+01
       D  1.71959e+01  1.96538e+01  1.74883e+01
       D  1.60585e+01  1.85658e+01  1.66301e+01
       D  1.73585e+01  1.78798e+01  1.76613e+01
       C  9.35867e+00  1.41975e+01  2.03466e+01
       D  9.63524e+00  1.42378e+01  1.92847e+01
       D  9.86658e+00  1.50053e+01  2.08907e+01
       D  9.65565e+00  1.32230e+01  2.07554e+01
       D  8.27406e+00  1.43242e+01  2.04525e+01
       C  5.23501e+00  2.71964e+01  2.69242e+00
       D  4.78316e+00  2.77634e+01  1.86722e+00
       D  4.71754e+00  2.74397e+01  3.63039e+00
       D  6.29707e+00  2.74614e+01  2.78304e+00
       D  5.14214e+00  2.61208e+01  2.48997e+00
       C  2.92175e+00  2.02456e+01  7.15351e+00
       D  2.51408e+00  1.95976e+01  6.36500e+00
       D  2.82112e+00  2.12982e+01  6.85702e+00
       D  3.98284e+00  2.00085e+01  7.30689e+00
       D  2.37306e+00  2.00787e+01  8.08982e+00
       C  1.95111e+01  6.93636e+00  1.30165e+01
       D  1.97196e+01  6.05291e+00  1.36354e+01
       D  1.85467e+01  7.36940e+00  1.33126e+01
       D  1.94714e+01  6.64164e+00  1.19596e+01
       D  2.03042e+01  7.68287e+00  1.31570e+01
       C  1.26139e+01  2.20925e+01  2.34008e+01
       D  1.25908e+01  2.29701e+01  2.40594e+01
       D  1.36417e+01  2.17116e+01  2.33376e+01
       D  1.22630e+01  2.23790e+01  2.24003e+01
       D  1.19603e+01  2.13117e+01  2.38100e+01
       C  2.53265e+01  1.31785e+01  4.94583e+00
       D  2.47038e+01  1.29652e+01  4.06638e+00
       D  2.46830e+01  1.34251e+01  5.80101e+00
       D  2.59855e+01  1.40300e+01  4.72866e+00
       D  2.59347e+01  1.22964e+01  5.18780e+00
       C  1.60382e+00  4.81469e+00  2.79013e+01
       D  1.54160e+00  4.15593e+00  2.87783e+01
       D  1.66292e+00  4.20814e+00  2.69875e+01
       D  2.50040e+00  5.44478e+00  2.79784e+01
       D  7.10071e-01  5.45141e+00  2.78592e+01
       C  3.48064e+00  1.12803e+01  2.49912e+01
       D  3.57744e+00  1.23663e+01  2.51242e+01
       D  4.36424e+00  1.08942e+01  2.44650e+01
       D  2.57751e+00  1.10645e+01  2.44046e+01
       D  3.40036e+00  1.07957e+01  2.59735e+01
       C  1.58294e+01  1.12672e+01  1.42505e+01
       D  1.51823e+01  1.05248e+01  1.37649e+01
       D  1.52122e+01  1.20567e+01  1.46983e+01
       D  1.65026e+01  1.17147e+01  1.35081e+01
       D  1.64197e+01  1.07780e+01  1.50359e+01
       C  1.36403e+01  2.05376e+01  7.70056e+00
       D  1.40647e+01  2.14169e+01  8.20347e+00
       D  1.41728e+01  1.96343e+01  8.02678e+00
       D  1.37475e+01  2.06551e+01  6.61399e+00
       D  1.25773e+01  2.04419e+01  7.96152e+00
       C  1.28774e+01  6.11930e+00  7.90109e+00
       D  1.31863e+01  5.44388e+00  7.09255e+00
       D  1.37250e+01  6.75316e+00  8.19585e+00
       D  1.25457e+01  5.52526e+00  8.76338e+00
       D  1.20504e+01  6.75253e+00  7.55251e+00
       C  2.08140e+01  8.57130e+00  1.60466e+00
       D  2.01043e+01  7.89862e+00  1.10598e+00
       D  2.15122e+01  7.98021e+00  2.21218e+00
       D  2.02667e+01  9.26748e+00  2.25248e+00
       D  2.13699e+01  9.14142e+00  8.48424e-01
       C  4.90580e+00  5.62055e+00  1.67179e+01
       D  5.45582e+00  4.84541e+00  1.61688e+01
       D  4.13834e+00  5.14866e+00  1.73443e+01
       D  4.42701e+00  6.30346e+00  1.60039e+01
       D  5.59952e+00  6.18334e+00  1.73564e+01
       C  1.89352e+01  1.78518e+01  2.76818e+01
       D  1.85818e+01  1.88498e+01  2.79730e+01
       D  1.85079e+01  1.70999e+01  2.83589e+01
       D  2.00312e+01  1.78194e+01  2.77441e+01
       D  1.86179e+01  1.76379e+01  2.66522e+01
       C  8.41337e+00  4.25897e+00  1.57243e+01
       D  7.99217e+00  4.96188e+00  1.49927e+01
       D  9.05938e+00  4.80528e+00  1.64252e+01
       D  9.00508e+00  3.49686e+00  1.52001e+01
       D  7.59974e+00  3.77244e+00  1.62783e+01
       C  9.95136e+00  9.81643e+00  1.08499e+01
       D  9.01148e+00  1.03459e+01  1.06545e+01
       D  1.07043e+01  1.05289e+01  1.12122e+01
       D  1.03027e+01  9.34766e+00  9.92203e+00
       D  9.77742e+00  9.03896e+00  1.16061e+01
       C  1.56315e+00  1.89122e+01  2.77854e+01
       D  7.28105e-01  1.95985e+01  2.79812e+01
       D  1.33533e+00  1.83069e+01  2.68976e+01
       D  1.70901e+00  1.82549e+01  2.86530e+01
       D  2.48139e+00  1.94895e+01  2.76109e+01
       C  1.81078e+01  3.17832e+00  3.67654e+00
       D  1.83140e+01  2.22035e+00  4.17311e+00
       D  1.86986e+01  3.97363e+00  4.15049e+00
       D  1.70387e+01  3.41409e+00  3.76620e+00
       D  1.83817e+01  3.10594e+00  2.61558e+00
       C  2.78491e+01  6.85864e+00  2.40269e+00
       D  2.81360e+01  7.87129e+00  2.71613e+00
       D  2.87472e+01  6.22972e+00  2.33694e+00
       D  2.73591e+01  6.90380e+00  1.42086e+00
       D  2.71542e+01  6.42959e+00  3.13685e+00
       C  1.04673e+01  2.28487e+01  9.79281e+00
       D  1.11419e+01  2.21603e+01  9.26592e+00
       D  1.08106e+01  2.38816e+01  9.64637e+00
       D  1.04651e+01  2.26117e+01  1.08653e+01
       D  9.45044e+00  2.27425e+01  9.39419e+00
       C  2.58950e+01  1.08357e+01  1.72559e+01
       D  2.52665e+01  1.02477e+01  1.79383e+01
       D  2.54402e+01  1.08399e+01  1.62580e+01
       D  2.68968e+01  1.03888e+01  1.72007e+01
       D  2.59717e+01  1.18682e+01  1.76218e+01
       C  2.05945e+01  8.40507e+00  9.41776e+00
       D  2.14224e+01  8.46282e+00  8.69823e+00
       D  2.09500e+01  8.70287e+00  1.04130e+01
       D  2.02128e+01  7.37609e+00  9.45828e+00
       D  1.97895e+01  9.08298e+00  9.10435e+00
       C  1.95711e+01  1.85016e+01  2.09670e+01
       D  1.93566e+01  1.80455e+01  1.99911e+01
       D  2.02933e+01  1.93195e+01  2.08406e+01
       D  1.99877e+01  1.77432e+01  2.16421e+01
       D  1.86426e+01  1.88961e+01  2.13998e+01
       C  1.46556e+01  2.84368e+01  2.30645e+01
       D  1.42126e+01  2.79107e+01  2.39211e+01
       D  1.43111e+01  2.94795e+01  2.30572e+01
       D  1.43464e+01  2.79441e+01  2.21326e+01
       D  1.57507e+01  2.84101e+01  2.31476e+01
       C  2.45345e+00  9.07950e+00  1.10967e+01
       D  2.15659e+00  1.00858e+01  1.14200e+01
       D  3.03441e+00  8.60042e+00  1.18962e+01
       D  3.06982e+00  9.15182e+00  1.01904e+01
       D  1.55757e+00  8.48048e+00  1.08850e+01
       C  1.14471e+01  2.27986e+01  2.67198e+01
       D  1.12755e+01  2.18703e+01  2.72808e+01
       D  1.12034e+01  2.36617e+01  2.73535e+01
       D  1.08062e+01  2.28094e+01  2.58276e+01
       D  1.25023e+01  2.28533e+01  2.64201e+01
       C  2.66193e+01  2.32859e+01  2.42124e+01
       D  2.75069e+01  2.32007e+01  2.48542e+01
       D  2.67183e+01  2.26030e+01  2.33577e+01
       D  2.65305e+01  2.43196e+01  2.38522e+01
       D  2.57218e+01  2.30197e+01  2.47868e+01
       C  2.49665e+01  2.03778e+01  1.19206e+01
       D  2.59277e+01  2.02066e+01  1.14197e+01
       D  2.50198e+01  2.00093e+01  1.29535e+01
       D  2.41788e+01  1.98354e+01  1.13835e+01
       D  2.47357e+01  2.14508e+01  1.19228e+01
       C  1.54058e+01  1.62315e+01  2.76040e+01
       D  1.59958e+01  1.54967e+01  2.70395e+01
       D  1.60677e+01  1.70250e+01  2.79752e+01
       D  1.49165e+01  1.57362e+01  2.84536e+01
       D  1.46427e+01  1.66704e+01  2.69473e+01
       C  1.61546e+00  1.19134e+01  1.72972e+01
       D  1.19207e+00  1.11838e+01  1.65933e+01
       D  1.62432e+00  1.14832e+01  1.83069e+01
       D  1.00586e+00  1.28272e+01  1.72874e+01
       D  2.64419e+00  1.21580e+01  1.70034e+01
       C  2.35068e+01  2.10238e+01  1.94298e+01
       D  2.40779e+01  2.01087e+01  1.96364e+01
       D  2.33503e+01  2.11214e+01  1.83469e+01
       D  2.40639e+01  2.18957e+01  1.97986e+01
       D  2.25346e+01  2.09706e+01  1.99386e+01
       C  4.32202e+00  1.14973e+01  2.15124e+01
       D  3.38540e+00  1.12994e+01  2.20489e+01
       D  4.12292e+00  1.15197e+01  2.04331e+01
       D  5.04968e+00  1.07056e+01  2.17364e+01
       D  4.72817e+00  1.24665e+01  2.18296e+01
       C  6.68369e+00  2.91621e+00  1.14155e+01
       D  6.24291e+00  3.88495e+00  1.16866e+01
       D  6.89635e+00  2.89928e+00  1.03382e+01
       D  5.97803e+00  2.11112e+00  1.16618e+01
       D  7.61751e+00  2.76954e+00  1.19753e+01
       C  2.22635e+01  8.97236e+00  2.36083e+01
       D  2.25974e+01  8.06229e+00  2.30909e+01
       D  2.18237e+01  8.70253e+00  2.45776e+01
       D  2.15085e+01  9.48618e+00  2.29982e+01
       D  2.31217e+01  9.63838e+00  2.37688e+01
       C  1.63543e+01  1.69789e+01  2.09488e+01
       D  1.67361e+01  1.74280e+01  2.18743e+01
       D  1.71690e+01  1.69157e+01  2.02152e+01
       D  1.55459e+01  1.76003e+01  2.05422e+01
       D  1.59681e+01  1.59734e+01  2.11635e+01
       C  6.22398e+00  1.57113e+01  1.25253e+01
       D  5.37027e+00  1.58996e+01  1.18606e+01
       D  6.10707e+00  1.47338e+01  1.30106e+01
       D  6.27614e+00  1.64997e+01  1.32882e+01
       D  7.14791e+00  1.57152e+01  1.19360e+01
       C  8.55692e+00  1.16324e+01  4.34884e+00
       D  7.61252e+00  1.19903e+01  4.77929e+00
       D  9.23081e+00  1.13188e+01  5.15760e+00
       D  9.02536e+00  1.24425e+01  3.77354e+00
       D  8.35847e+00  1.07795e+01  3.68569e+00
       C  5.52465e+00  6.85190e+00  1.06075e+01
       D  5.87641e+00  7.66029e+00  9.95277e+00
       D  4.44212e+00  6.95187e+00  1.07588e+01
       D  6.03746e+00  6.91406e+00  1.15769e+01
       D  5.73967e+00  5.88077e+00  1.01424e+01
       C  2.09275e+01  1.58819e+01  5.85855e+00
       D  2.17482e+01  1.57181e+01  6.56933e+00
       D  2.10394e+01  1.51968e+01  5.00703e+00
       D  2.09469e+01  1.69189e+01  5.49720e+00
       D  1.99697e+01  1.56965e+01  6.36196e+00
       C  2.84557e+01  4.84944e+00  1.43517e+01
       D  2.91226e+01  5.51203e+00  1.49175e+01
       D  2.83501e+01  3.89412e+00  1.48827e+01
       D  2.88780e+01  4.67141e+00  1.33534e+01
       D  2.74696e+01  5.32356e+00  1.42549e+01
       C  9.37883e+00  2.49231e+01  1.36878e+01
       D  9.38381e+00  2.39962e+01  1.30987e+01
       D  8.80546e+00  2.56946e+01  1.31565e+01
       D  1.04105e+01  2.52700e+01  1.38348e+01
       D  8.91342e+00  2.47336e+01  1.46640e+01
       C  1.05440e+01  1.94462e+01  1.13272e+01
       D  1.12706e+01  1.86870e+01  1.16463e+01
       D  9.53884e+00  1.90071e+01  1.13241e+01
       D  1.08018e+01  1.97926e+01  1.03169e+01
       D  1.05650e+01  2.02929e+01  1.20253e+01
       C  3.78362e+00  7.92879e+00  2.34709e+01
       D  4.38931e+00  8.64907e+00  2.29046e+01
       D  4.39122e+00  7.04941e+00  2.37231e+01
       D  2.92545e+00  7.61231e+00  2.28629e+01
       D  3.42469e+00  8.40288e+00  2.43941e+01
       C  2.09229e+01  5.99948e+00  2.58499e+01
       D  2.00323e+01  6.63360e+00  2.57462e+01
       D  2.08478e+01  5.14061e+00  2.51692e+01
       D  2.09943e+01  5.64133e+00  2.68855e+01
       D  2.18192e+01  6.58212e+00  2.56002e+01
       C  1.46732e+01  1.44901e+00  7.97209e-01
       D  1.52131e+01  1.48238e+00 -1.58684e-01
       D  1.53925e+01  1.48402e+00  1.62689e+00
       D  1.40907e+01  5.19614e-01  8.57289e-01
       D  1.39961e+01  2.31149e+00  8.63663e-01
       C  1.55004e+01  1.18283e+01  2.08062e+01
       D  1.51807e+01  1.14273e+01  2.17762e+01
       D  1.51250e+01  1.11892e+01  1.99952e+01
       D  1.65979e+01  1.18613e+01  2.07684e+01
       D  1.50977e+01  1.28431e+01  2.06865e+01
       C  1.24210e+01  1.75407e+01  1.70341e+01
       D  1.29695e+01  1.78654e+01  1.79286e+01
       D  1.22028e+01  1.64667e+01  1.71065e+01
       D  1.30331e+01  1.77289e+01  1.61415e+01
       D  1.14790e+01  1.81005e+01  1.69573e+01
       C  2.00647e+01  1.22363e+01  1.23481e+00
       D  1.94998e+01  1.15009e+01  6.45782e-01
       D  2.09453e+01  1.17519e+01  1.67793e+00
       D  1.94241e+01  1.26353e+01  2.03311e+00
       D  2.03908e+01  1.30572e+01  5.82338e-01
       C  2.27009e+01  1.66453e+01  2.04932e+01
       D  2.33632e+01  1.57878e+01  2.06706e+01
       D  2.19805e+01  1.67188e+01  2.13179e+01
       D  2.21585e+01  1.65067e+01  1.95484e+01
       D  2.33009e+01  1.75640e+01  2.04399e+01
       C  1.21220e+01  2.80823e+01  5.80069e+00
       D  1.21256e+01  2.88793e+01  6.55475e+00
       D  1.30850e+01  2.80803e+01  5.27253e+00
       D  1.13063e+01  2.82584e+01  5.08583e+00
       D  1.19703e+01  2.71112e+01  6.29208e+00
       C  2.36566e+01  1.75654e+01  2.35640e+01
       D  2.28383e+01  1.81655e+01  2.31440e+01
       D  2.38311e+01  1.78657e+01  2.46056e+01
       D  2.45687e+01  1.77308e+01  2.29750e+01
       D  2.33888e+01  1.65007e+01  2.35293e+01
       C  7.65889e+00  2.90428e+00  2.85322e+01
       D  7.51247e+00  3.93107e+00  2.81703e+01
       D  8.63696e+00  2.82588e+00  2.90259e+01
       D  7.62062e+00  2.20788e+00  2.76836e+01
       D  6.86525e+00  2.65175e+00  2.92486e+01
       C  2.56476e+01  2.01154e+01  8.43341e+00
       D  2.62152e+01  1.92514e+01  8.80366e+00
       D  2.61570e+01  2.10398e+01  8.73723e+00
       D  2.46332e+01  2.01005e+01  8.85293e+00
       D  2.55893e+01  2.00715e+01  7.33804e+00
       C  2.51413e+01  2.57826e+01  1.25104e+00
       D  2.45184e+01  2.48853e+01  1.36422e+00
       D  2.48162e+01  2.63455e+01  3.66074e-01
       D  2.61909e+01  2.54808e+01  1.13282e+00
       D  2.50399e+01  2.64174e+01  2.14155e+00
       C  2.29281e+01  1.98693e+01  2.70189e+01
       D  2.34546e+01  2.00421e+01  2.79674e+01
       D  2.23804e+01  1.89186e+01  2.70715e+01
       D  2.36561e+01  1.98262e+01  2.61977e+01
       D  2.22213e+01  2.06907e+01  2.68388e+01
       C  1.98203e+01  2.20566e+01  1.85091e+01
       D  1.91794e+01  2.14390e+01  1.78666e+01
       D  1.95455e+01  2.19013e+01  1.95608e+01
       D  1.96903e+01  2.31153e+01  1.82476e+01
       D  2.08664e+01  2.17659e+01  1.83535e+01
       C  3.33282e+00  4.45437e+00  9.15064e+00
       D  2.58015e+00  4.03888e+00  8.46736e+00
       D  4.27459e+00  4.60642e+00  8.60696e+00
       D  3.49682e+00  3.75687e+00  9.98312e+00
       D  2.97907e+00  5.41663e+00  9.54439e+00
       C  8.71670e+00  1.08262e+01  1.42727e+01
       D  7.94791e+00  1.07483e+01  1.50526e+01
       D  8.39074e+00  1.15513e+01  1.35167e+01
       D  8.85826e+00  9.84572e+00  1.37990e+01
       D  9.66377e+00  1.11583e+01  1.47183e+01
       C  2.72818e+01  3.59164e+00 -1.42646e-01
       D  2.70024e+01  2.69149e+00  4.20328e-01
       D  2.76052e+01  4.37424e+00  5.57327e-01
       D  2.64161e+01  3.94585e+00 -7.18892e-01
       D  2.81058e+01  3.35498e+00 -8.28614e-01
       C  2.35047e+01  9.85962e+00  5.20122e+00
       D  2.30978e+01  9.41909e+00  6.12145e+00
       D  2.45989e+01  9.76505e+00  5.20206e+00
       D  2.32279e+01  1.09216e+01  5.14845e+00
       D  2.30890e+01  9.33014e+00  4.33434e+00
       C  2.16889e+01  2.03392e+01  1.01049e+01
       D  2.22928e+01  2.11107e+01  1.06012e+01
       D  2.20759e+01  1.93445e+01  1.03627e+01
       D  2.17392e+01  2.04819e+01  9.01799e+00
       D  2.06464e+01  2.04222e+01  1.04402e+01
       C  1.15123e+01  2.83971e+01  2.06395e+01
       D  1.14442e+01  2.82492e+01  2.17258e+01
       D  1.25452e+01  2.86544e+01  2.03692e+01
       D  1.08402e+01  2.92121e+01  2.03395e+01
       D  1.12181e+01  2.74732e+01  2.01242e+01
       C  1.43793e+01  1.33039e+01  5.53528e+00
       D  1.40298e+01  1.32680e+01  6.57603e+00
       D  1.54284e+01  1.29832e+01  5.49107e+00
       D  1.42929e+01  1.43310e+01  5.15477e+00
       D  1.37641e+01  1.26347e+01  4.91851e+00
       C  6.70563e+00  9.48125e+00  2.65435e+01
       D  6.94372e+00  1.04382e+01  2.60592e+01
       D  5.61536e+00  9.35683e+00  2.65914e+01
       D  7.11692e+00  9.47301e+00  2.75621e+01
       D  7.14572e+00  8.65885e+00  2.59637e+01
       C  2.29395e+00  2.63501e+01  2.37359e+01
       D  2.92823e+00  2.60325e+01  2.28974e+01
       D  2.62801e+00  2.73325e+01  2.40965e+01
       D  2.36834e+00  2.56160e+01  2.45496e+01
       D  1.25056e+00  2.64196e+01  2.33995e+01
       C  8.33589e+00  2.63804e+01  1.88710e+01
       D  9.35306e+00  2.66839e+01  1.85887e+01
       D  7.61013e+00  2.70684e+01  1.84170e+01
       D  8.23536e+00  2.64102e+01  1.99645e+01
       D  8.14459e+00  2.53598e+01  1.85137e+01
       C  1.43886e+01  1.50088e+01  1.43856e+01
       D  1.49227e+01  1.47220e+01  1.34703e+01
       D  1.46851e+01  1.60240e+01  1.46796e+01
       D  1.46400e+01  1.43018e+01  1.51868e+01
       D  1.33065e+01  1.49882e+01  1.42011e+01
       C  2.44073e+01  1.19276e+01  2.08648e+01
       D  2.53102e+01  1.20557e+01  2.14766e+01
       D  2.46855e+01  1.15363e+01  1.98775e+01
       D  2.39088e+01  1.28989e+01  2.07481e+01
       D  2.37262e+01  1.12228e+01  2.13600e+01
       C  2.17830e+01  1.28842e+01  2.31266e+01
       D  2.15623e+01  1.22490e+01  2.22580e+01
       D  2.21500e+01  1.22595e+01  2.39524e+01
       D  2.08692e+01  1.34064e+01  2.34390e+01
       D  2.25489e+01  1.36239e+01  2.28567e+01
       C  1.35686e+01  2.71366e+01  1.29810e+01
       D  1.40148e+01  2.67962e+01  1.20375e+01
       D  1.32313e+01  2.62655e+01  1.35585e+01
       D  1.27116e+01  2.77924e+01  1.27712e+01
       D  1.43246e+01  2.76843e+01  1.35578e+01
       C  4.42233e+00  1.86413e+01  2.53434e+01
       D  5.21602e+00  1.92535e+01  2.57925e+01
       D  4.84218e+00  1.80392e+01  2.45261e+01
       D  3.63302e+00  1.92955e+01  2.49494e+01
       D  3.99586e+00  1.79762e+01  2.61061e+01
       C  2.29825e+01  1.43257e+01  1.01701e+01
       D  2.25130e+01  1.42874e+01  9.17839e+00
       D  2.28861e+01  1.33505e+01  1.06643e+01
       D  2.24889e+01  1.50938e+01  1.07808e+01
       D  2.40473e+01  1.45648e+01  1.00577e+01
       C  1.85109e+01  1.31871e+01  6.96833e+00
       D  1.84108e+01  1.22230e+01  7.48482e+00
       D  1.76940e+01  1.32988e+01  6.24354e+00
       D  1.94744e+01  1.32198e+01  6.44224e+00
       D  1.84658e+01  1.40035e+01  7.70151e+00
       C  2.05731e+01  7.44806e+00  1.63279e+01
       D  2.11048e+01  7.53405e+00  1.72847e+01
       D  2.12849e+01  7.57281e+00  1.55012e+01
       D  1.98008e+01  8.22589e+00  1.62631e+01
       D  2.01021e+01  6.45830e+00  1.62569e+01
       C  2.01727e+01  1.09265e+01  4.76882e+00
       D  2.06995e+01  1.17012e+01  4.19589e+00
       D  2.04051e+01  1.10403e+01  5.83611e+00
       D  2.04990e+01  9.93360e+00  4.43225e+00
       D  1.90894e+01  1.10267e+01  4.61627e+00
       C  2.48735e+01  1.38962e+01  1.31493e+01
       D  2.41288e+01  1.35980e+01  1.38993e+01
       D  2.58795e+01  1.38423e+01  1.35866e+01
       D  2.46760e+01  1.49244e+01  1.28175e+01
       D  2.48094e+01  1.32165e+01  1.22896e+01
       C  2.16415e+01  9.08072e-01  2.09401e+00
       D  2.12169e+01  3.15401e-02  2.60171e+00
       D  2.09851e+01  1.77534e+00  2.24931e+00
       D  2.17266e+01  7.03128e-01  1.01796e+00
       D  2.26366e+01  1.12277e+00  2.50625e+00
       C  2.84155e+01  7.15140e+00  1.98562e+01
       D  2.79282e+01  6.42657e+00  1.91917e+01
       D  2.77449e+01  7.39347e+00  2.06915e+01
       D  2.86460e+01  8.06703e+00  1.92950e+01
       D  2.93431e+01  6.71291e+00  2.02473e+01
       C  6.97649e+00  1.00267e+01  8.20170e+00
       D  7.99681e+00  9.63479e+00  8.09458e+00
       D  6.27116e+00  9.33642e+00  7.72032e+00
       D  6.90786e+00  1.10137e+01  7.72365e+00
       D  6.72999e+00  1.01170e+01  9.26818e+00
       C  1.96633e+01  6.91546e+00  2.25550e+01
       D  2.02254e+01  6.05896e+00  2.29505e+01
       D  2.01228e+01  7.24589e+00  2.16145e+01
       D  1.96810e+01  7.73318e+00  2.32880e+01
       D  1.86229e+01  6.61872e+00  2.23669e+01
       C  1.89938e+00  1.54402e+01  8.08132e-01
       D  2.38067e+00  1.59066e+01  1.67780e+00
       D  2.60464e+00  1.54162e+01 -3.33723e-02
       D  1.01163e+00  1.60217e+01  5.25321e-01
       D  1.59736e+00  1.44152e+01  1.06189e+00
       C  1.14080e+01  1.14648e+01  2.07586e+00
       D  1.09869e+01  1.24788e+01  2.04827e+00
       D  1.13707e+01  1.10793e+01  3.10381e+00
       D  1.24509e+01  1.14925e+01  1.73251e+00
       D  1.08231e+01  1.08077e+01  1.41809e+00
       C  1.83877e+01  7.68174e+00  2.79191e+01
       D  1.76459e+01  7.33869e+00  2.71855e+01
       D  1.89703e+01  6.82175e+00  2.82767e+01
       D  1.78743e+01  8.15540e+00  2.87669e+01
       D  1.90615e+01  8.41013e+00  2.74479e+01
       C  4.54040e+00  1.66218e+01  3.68424e+00
       D  4.39201e+00  1.57915e+01  2.98087e+00
       D  5.31109e+00  1.63453e+01  4.41651e+00
       D  3.59762e+00  1.68337e+01  4.20676e+00
       D  4.86312e+00  1.75153e+01  3.13286e+00
       C  7.09703e-01  1.38409e+01  4.44460e+00