LAMMPS data file. CGCMM style. atom_style full generated by VMD/TopoTools v1.5 on Wed Nov 30 12:14:08 GMT 2016
 500 atoms
 400 bonds
 600 angles
 0 dihedrals
 0 impropers
 2 atom types
 1 bond types
 1 angle types
 0 dihedral types
 0 improper types
 0.0 18.36  xlo xhi
 0.0 18.36  ylo yhi
 0.0 18.36  zlo zhi

# Pair Coeffs
#
# 1  CT
# 2  HC

# Bond Coeffs
#
# 1  CT-HC

# Angle Coeffs
#
# 1  HC-CT-HC

 Masses

 1 12.011000 # CT
 2 1.008000 # HC

 Atoms

1 1 1 -0.240000 8.462276 10.616457 10.562225 # CT
2 1 2 0.060000 7.519184 11.156319 10.506841 # HC
3 1 2 0.060000 8.268875 9.545820 10.545055 # HC
4 1 2 0.060000 8.975949 10.877465 11.485256 # HC
5 1 2 0.060000 9.085104 10.886201 9.711783 # HC
6 2 1 -0.240000 14.171376 8.955563 11.929863 # CT
7 2 2 0.060000 14.823530 8.808111 12.788289 # HC
8 2 2 0.060000 14.307605 8.137014 11.226029 # HC
9 2 2 0.060000 14.419055 9.896964 11.443664 # HC
10 2 2 0.060000 13.135334 8.980170 12.261432 # HC
11 3 1 -0.240000 12.010175 16.017656 13.228439 # CT
12 3 2 0.060000 11.732638 16.622831 14.089065 # HC
13 3 2 0.060000 12.606672 16.615188 12.542065 # HC
14 3 2 0.060000 11.110791 15.673287 12.721991 # HC
15 3 2 0.060000 12.590583 15.159329 13.560596 # HC
16 4 1 -0.240000 2.137318 7.479652 15.753954 # CT
17 4 2 0.060000 2.492403 8.474825 16.013735 # HC
18 4 2 0.060000 1.215933 7.270920 16.293808 # HC
19 4 2 0.060000 2.891222 6.743342 16.024965 # HC
20 4 2 0.060000 1.949715 7.429490 14.683339 # HC
21 5 1 -0.240000 5.540407 15.644772 3.103738 # CT
22 5 2 0.060000 4.774611 15.493641 3.861798 # HC
23 5 2 0.060000 6.415776 16.103588 3.558907 # HC
24 5 2 0.060000 5.154052 16.296530 2.322770 # HC
25 5 2 0.060000 5.817200 14.685369 2.671466 # HC
26 6 1 -0.240000 8.471195 16.828390 5.435138 # CT
27 6 2 0.060000 9.212386 17.374909 6.014702 # HC
28 6 2 0.060000 7.559590 17.418186 5.363858 # HC
29 6 2 0.060000 8.253315 15.881778 5.925469 # HC
30 6 2 0.060000 8.859452 16.638675 4.436543 # HC
31 7 1 -0.240000 1.672300 9.763902 13.326428 # CT
32 7 2 0.060000 1.028511 10.638048 13.253321 # HC
33 7 2 0.060000 2.487259 9.852795 12.610954 # HC
34 7 2 0.060000 1.094107 8.868348 13.108148 # HC
35 7 2 0.060000 2.079326 9.696390 14.333254 # HC
36 8 1 -0.240000 15.165057 1.329736 8.876850 # CT
37 8 2 0.060000 16.138174 1.502904 9.331820 # HC
38 8 2 0.060000 14.388679 1.759881 9.506274 # HC
39 8 2 0.060000 14.997663 0.259436 8.774829 # HC
40 8 2 0.060000 15.135685 1.796695 7.894499 # HC
41 9 1 -0.240000 2.509817 15.695743 12.952759 # CT
42 9 2 0.060000 2.003605 15.255749 13.809553 # HC
43 9 2 0.060000 3.548299 15.371197 12.939037 # HC
44 9 2 0.060000 2.469824 16.780665 13.025660 # HC
45 9 2 0.060000 2.017571 15.375388 12.036793 # HC
46 10 1 -0.240000 12.786915 1.712729 7.758803 # CT
47 10 2 0.060000 12.175828 2.185027 6.992351 # HC
48 10 2 0.060000 13.771162 1.490106 7.351790 # HC
49 10 2 0.060000 12.311541 0.789498 8.083817 # HC
50 10 2 0.060000 12.889142 2.386243 8.607246 # HC
51 11 1 -0.240000 4.582413 11.475514 10.393995 # CT
52 11 2 0.060000 5.550193 11.161434 10.779609 # HC
53 11 2 0.060000 3.876811 10.650667 10.469588 # HC
54 11 2 0.060000 4.685578 11.770177 9.351641 # HC
55 11 2 0.060000 4.217058 12.319760 10.975108 # HC
56 12 1 -0.240000 14.268792 1.561050 12.432173 # CT
57 12 2 0.060000 15.152238 1.027944 12.777517 # HC
58 12 2 0.060000 14.504490 2.617001 12.316512 # HC
59 12 2 0.060000 13.468052 1.445757 13.159835 # HC
60 12 2 0.060000 13.950371 1.153527 11.474853 # HC
61 13 1 -0.240000 10.879459 9.585581 1.183291 # CT
62 13 2 0.060000 11.232325 10.595070 1.384186 # HC
63 13 2 0.060000 11.728066 8.942807 0.958191 # HC
64 13 2 0.060000 10.200648 9.601123 0.333030 # HC
65 13 2 0.060000 10.356802 9.203308 2.057720 # HC
66 14 1 -0.240000 8.990242 15.465077 1.655572 # CT
67 14 2 0.060000 9.388012 15.760036 0.686697 # HC
68 14 2 0.060000 8.180706 14.752040 1.513473 # HC
69 14 2 0.060000 8.612893 16.343367 2.175365 # HC
70 14 2 0.060000 9.779315 15.004876 2.246762 # HC
71 15 1 -0.240000 6.210728 8.550480 16.084557 # CT
72 15 2 0.060000 7.294134 8.646878 16.054865 # HC
73 15 2 0.060000 5.755380 9.444235 15.662868 # HC
74 15 2 0.060000 5.885459 8.429803 17.115871 # HC
75 15 2 0.060000 5.907920 7.681031 15.504650 # HC
76 16 1 -0.240000 17.127282 8.654273 15.901092 # CT
77 16 2 0.060000 18.054682 8.545130 15.342560 # HC
78 16 2 0.060000 17.020951 7.821900 16.593776 # HC
79 16 2 0.060000 16.286541 8.660990 15.210382 # HC
80 16 2 0.060000 17.146923 9.589042 16.457643 # HC
81 17 1 -0.240000 11.215753 12.765432 11.629924 # CT
82 17 2 0.060000 12.236614 12.632784 11.982330 # HC
83 17 2 0.060000 10.634463 13.284461 12.389314 # HC
84 17 2 0.060000 10.770202 11.792179 11.434391 # HC
85 17 2 0.060000 11.221703 13.352282 10.713683 # HC
86 18 1 -0.240000 9.377189 2.887757 5.665036 # CT
87 18 2 0.060000 9.964970 2.331993 6.392760 # HC
88 18 2 0.060000 8.963161 2.199182 4.931273 # HC
89 18 2 0.060000 10.013713 3.613382 5.162767 # HC
90 18 2 0.060000 8.566926 3.406470 6.173306 # HC
91 19 1 -0.240000 0.794417 4.720357 1.339611 # CT
92 19 2 0.060000 1.647366 5.363987 1.134283 # HC
93 19 2 0.060000 0.063763 4.820231 0.539528 # HC
94 19 2 0.060000 0.339713 5.011176 2.284406 # HC
95 19 2 0.060000 1.126788 3.686055 1.400234 # HC
96 20 1 -0.240000 13.899425 3.935482 3.788625 # CT
97 20 2 0.060000 13.970291 2.922378 4.179187 # HC
98 20 2 0.060000 14.017248 3.916326 2.707092 # HC
99 20 2 0.060000 14.683133 4.549242 4.228020 # HC
100 20 2 0.060000 12.927061 4.353998 4.040181 # HC
101 21 1 -0.240000 17.481449 2.683815 6.563368 # CT
102 21 2 0.060000 18.295978 2.110820 7.001729 # HC
103 21 2 0.060000 17.787362 3.722046 6.451762 # HC
104 21 2 0.060000 16.609890 2.630300 7.212591 # HC
105 21 2 0.060000 17.232549 2.272123 5.587414 # HC
106 22 1 -0.240000 17.177355 7.671232 8.470399 # CT
107 22 2 0.060000 17.115443 8.757545 8.464740 # HC
108 22 2 0.060000 16.311435 7.255923 7.958869 # HC
109 22 2 0.060000 17.197108 7.314416 9.498145 # HC
110 22 2 0.060000 18.085404 7.357022 7.959863 # HC
111 23 1 -0.240000 3.288531 2.054006 10.605523 # CT
112 23 2 0.060000 3.266562 2.910490 11.276264 # HC
113 23 2 0.060000 3.280529 1.135821 11.189334 # HC
114 23 2 0.060000 4.191678 2.090778 9.999764 # HC
115 23 2 0.060000 2.415389 2.078910 9.956732 # HC
116 24 1 -0.240000 12.631741 6.940843 14.887459 # CT
117 24 2 0.060000 12.478635 7.689512 15.662052 # HC
118 24 2 0.060000 13.498617 7.211230 14.287976 # HC
119 24 2 0.060000 11.750950 6.892709 14.250388 # HC
120 24 2 0.060000 12.798758 5.969935 15.349379 # HC
121 25 1 -0.240000 16.791093 4.114595 9.666236 # CT
122 25 2 0.060000 17.302434 4.648812 10.464412 # HC
123 25 2 0.060000 17.269248 3.149529 9.511388 # HC
124 25 2 0.060000 16.843604 4.696792 8.748490 # HC
125 25 2 0.060000 15.749108 3.963241 9.940620 # HC
126 26 1 -0.240000 4.955304 6.666103 2.048783 # CT
127 26 2 0.060000 4.320578 7.536269 1.894267 # HC
128 26 2 0.060000 4.981736 6.070248 1.138716 # HC
129 26 2 0.060000 4.555874 6.065927 2.863777 # HC
130 26 2 0.060000 5.963010 6.991929 2.298369 # HC
131 27 1 -0.240000 4.625319 5.672082 17.714093 # CT
132 27 2 0.060000 4.468977 4.884673 16.979596 # HC
133 27 2 0.060000 5.493018 5.431255 18.324881 # HC
134 27 2 0.060000 3.746073 5.754941 18.349727 # HC
135 27 2 0.060000 4.793201 6.617448 17.202208 # HC
136 28 1 -0.240000 12.112753 15.159723 7.843827 # CT
137 28 2 0.060000 13.167114 15.343334 7.647484 # HC
138 28 2 0.060000 11.793694 14.268588 7.307130 # HC
139 28 2 0.060000 11.527402 16.013722 7.509135 # HC
140 28 2 0.060000 11.962775 15.013249 8.911525 # HC
141 29 1 -0.240000 11.627285 5.071766 8.677444 # CT
142 29 2 0.060000 12.508722 5.620421 8.351886 # HC
143 29 2 0.060000 10.899963 5.766873 9.091920 # HC
144 29 2 0.060000 11.911328 4.347578 9.438260 # HC
145 29 2 0.060000 11.189119 4.552191 7.827750 # HC
146 30 1 -0.240000 7.444901 10.608757 2.703178 # CT
147 30 2 0.060000 7.356891 10.767337 3.776047 # HC
148 30 2 0.060000 7.613077 11.562990 2.208084 # HC
149 30 2 0.060000 6.527491 10.161292 2.326211 # HC
150 30 2 0.060000 8.282116 9.943425 2.502344 # HC
151 31 1 -0.240000 14.047391 14.796274 0.875362 # CT
152 31 2 0.060000 14.757447 15.193694 0.152992 # HC
153 31 2 0.060000 14.309025 15.146763 1.871688 # HC
154 31 2 0.060000 14.078216 13.708822 0.853718 # HC
155 31 2 0.060000 13.044889 15.135790 0.623077 # HC
156 32 1 -0.240000 5.621867 12.984964 3.078164 # CT
157 32 2 0.060000 4.744846 13.619051 2.965425 # HC
158 32 2 0.060000 6.043491 13.122396 4.071797 # HC
159 32 2 0.060000 6.363376 13.254970 2.329010 # HC
160 32 2 0.060000 5.335792 11.943458 2.946427 # HC
161 33 1 -0.240000 3.688070 15.294136 10.629188 # CT
162 33 2 0.060000 3.833435 14.640569 9.771481 # HC
163 33 2 0.060000 4.342003 14.979445 11.439931 # HC
164 33 2 0.060000 2.651862 15.238038 10.956442 # HC
165 33 2 0.060000 3.924965 16.318473 10.348934 # HC
166 34 1 -0.240000 13.099337 6.639248 10.596958 # CT
167 34 2 0.060000 13.421455 7.330694 11.372898 # HC
168 34 2 0.060000 13.942700 6.398151 9.953085 # HC
169 34 2 0.060000 12.311158 7.099998 10.004967 # HC
170 34 2 0.060000 12.722034 5.728163 11.056843 # HC
171 35 1 -0.240000 9.943315 2.321304 8.198334 # CT
172 35 2 0.060000 10.315601 2.933252 7.379271 # HC
173 35 2 0.060000 9.490241 2.961502 8.952544 # HC
174 35 2 0.060000 10.768403 1.767122 8.641147 # HC
175 35 2 0.060000 9.199034 1.623343 7.820413 # HC
176 36 1 -0.240000 17.224653 10.674407 12.953796 # CT
177 36 2 0.060000 17.601484 11.414999 13.656266 # HC
178 36 2 0.060000 18.019326 10.387577 12.268095 # HC
179 36 2 0.060000 16.395092 11.097494 12.390950 # HC
180 36 2 0.060000 16.882707 9.797570 13.499834 # HC
181 37 1 -0.240000 1.506282 3.873875 8.158172 # CT
182 37 2 0.060000 2.054147 4.276670 7.308736 # HC
183 37 2 0.060000 1.026718 4.687124 8.699103 # HC
184 37 2 0.060000 2.195369 3.354212 8.820803 # HC
185 37 2 0.060000 0.748907 3.177504 7.804084 # HC
186 38 1 -0.240000 10.659416 14.980180 14.212394 # CT
187 38 2 0.060000 10.797106 14.435244 13.280714 # HC
188 38 2 0.060000 11.582696 15.494224 14.471770 # HC
189 38 2 0.060000 10.397633 14.282555 15.005337 # HC
190 38 2 0.060000 9.860252 15.708684 14.091788 # HC
191 39 1 -0.240000 2.632986 17.087083 16.961440 # CT
192 39 2 0.060000 2.524453 16.199709 17.581705 # HC
193 39 2 0.060000 1.648849 17.449437 16.671375 # HC
194 39 2 0.060000 3.205286 16.838692 16.069956 # HC
195 39 2 0.060000 3.153342 17.860493 17.522685 # HC
196 40 1 -0.240000 8.578505 15.406151 11.894754 # CT
197 40 2 0.060000 9.501138 15.923058 11.638829 # HC
198 40 2 0.060000 8.810496 14.403464 12.247971 # HC
199 40 2 0.060000 7.942273 15.342386 11.014349 # HC
200 40 2 0.060000 8.060104 15.955661 12.677841 # HC
201 41 1 -0.240000 13.217262 10.296631 5.340639 # CT
202 41 2 0.060000 13.678780 11.121781 5.879221 # HC
203 41 2 0.060000 12.435384 9.854722 5.954924 # HC
204 41 2 0.060000 13.970298 9.544189 5.115389 # HC
205 41 2 0.060000 12.784590 10.665794 4.413039 # HC
206 42 1 -0.240000 16.960337 14.190864 11.171483 # CT
207 42 2 0.060000 17.940633 13.764020 10.969577 # HC
208 42 2 0.060000 17.077536 15.133887 11.701515 # HC
209 42 2 0.060000 16.383064 13.500401 11.783028 # HC
210 42 2 0.060000 16.440103 14.365151 10.231850 # HC
211 43 1 -0.240000 17.692138 8.531599 11.127056 # CT
212 43 2 0.060000 18.224146 9.016671 10.311204 # HC
213 43 2 0.060000 16.715113 8.994745 11.249044 # HC
214 43 2 0.060000 18.262475 8.640279 12.047314 # HC
215 43 2 0.060000 17.566810 7.474726 10.900697 # HC
216 44 1 -0.240000 11.509378 3.154481 12.561368 # CT
217 44 2 0.060000 10.773577 3.411670 13.320573 # HC
218 44 2 0.060000 11.557276 3.948535 11.818976 # HC
219 44 2 0.060000 11.221539 2.223039 12.078114 # HC
220 44 2 0.060000 12.485105 3.034674 13.027769 # HC
221 45 1 -0.240000 12.965160 3.692581 6.071855 # CT
222 45 2 0.060000 12.437360 4.204818 6.873716 # HC
223 45 2 0.060000 12.450695 3.867701 5.129188 # HC
224 45 2 0.060000 12.990194 2.624558 6.278425 # HC
225 45 2 0.060000 13.982371 4.073214 6.006070 # HC
226 46 1 -0.240000 13.052104 10.624665 12.508394 # CT
227 46 2 0.060000 13.532727 11.522020 12.124082 # HC
228 46 2 0.060000 12.549212 10.855472 13.445299 # HC
229 46 2 0.060000 13.802991 9.856009 12.679583 # HC
230 46 2 0.060000 12.323499 10.265143 11.784650 # HC
231 47 1 -0.240000 2.556114 12.868634 4.097154 # CT
232 47 2 0.060000 2.150539 13.424198 3.254065 # HC
233 47 2 0.060000 3.221587 13.512045 4.669107 # HC
234 47 2 0.060000 3.110835 12.007230 3.730771 # HC
235 47 2 0.060000 1.741535 12.531056 4.734674 # HC
236 48 1 -0.240000 6.790250 2.203421 1.500660 # CT
237 48 2 0.060000 5.859116 2.638703 1.143645 # HC
238 48 2 0.060000 6.570630 1.345418 2.132768 # HC
239 48 2 0.060000 7.340812 2.945638 2.075087 # HC
240 48 2 0.060000 7.390450 1.883928 0.651183 # HC
241 49 1 -0.240000 8.503058 8.781550 17.404522 # CT
242 49 2 0.060000 9.066456 8.204821 18.135212 # HC
243 49 2 0.060000 7.939740 8.105157 16.764890 # HC
244 49 2 0.060000 9.189991 9.367315 16.797093 # HC
245 49 2 0.060000 7.816054 9.448900 17.920852 # HC
246 50 1 -0.240000 1.526524 12.227450 14.970077 # CT
247 50 2 0.060000 2.054978 12.841300 15.696621 # HC
248 50 2 0.060000 1.741193 11.177405 15.157921 # HC
249 50 2 0.060000 1.853953 12.490660 13.966344 # HC
250 50 2 0.060000 0.455994 12.400413 15.059396 # HC
251 51 1 -0.240000 9.578025 8.663328 9.691972 # CT
252 51 2 0.060000 10.028868 7.674874 9.752311 # HC
253 51 2 0.060000 9.588020 9.127226 10.676178 # HC
254 51 2 0.060000 8.551019 8.572925 9.344041 # HC
255 51 2 0.060000 10.144157 9.278293 8.995380 # HC
256 52 1 -0.240000 3.233178 4.617209 13.722339 # CT
257 52 2 0.060000 2.880666 3.962974 12.927573 # HC
258 52 2 0.060000 3.523858 4.018273 14.583004 # HC
259 52 2 0.060000 2.437063 5.301390 14.008812 # HC
260 52 2 0.060000 4.091104 5.186201 13.370004 # HC
261 53 1 -0.240000 14.619170 13.065466 13.830821 # CT
262 53 2 0.060000 14.153331 13.439099 14.740400 # HC
263 53 2 0.060000 14.831845 12.004142 13.941827 # HC
264 53 2 0.060000 15.547118 13.604421 13.650793 # HC
265 53 2 0.060000 13.944426 13.214189 12.990267 # HC
266 54 1 -0.240000 1.294435 7.236663 13.278184 # CT
267 54 2 0.060000 2.016815 7.962748 12.910886 # HC
268 54 2 0.060000 1.801886 6.299666 13.498396 # HC
269 54 2 0.060000 0.532864 7.067142 12.519737 # HC
270 54 2 0.060000 0.826167 7.617061 14.183696 # HC
271 55 1 -0.240000 11.700421 7.422776 4.795865 # CT
272 55 2 0.060000 12.699326 7.742050 4.505703 # HC
273 55 2 0.060000 11.320361 8.082359 5.573340 # HC
274 55 2 0.060000 11.740891 6.402998 5.173204 # HC
275 55 2 0.060000 11.041102 7.463683 3.931254 # HC
276 56 1 -0.240000 4.178606 4.264026 4.624512 # CT
277 56 2 0.060000 4.457588 3.577017 3.828190 # HC
278 56 2 0.060000 3.132955 4.112468 4.884526 # HC
279 56 2 0.060000 4.323689 5.288319 4.287251 # HC
280 56 2 0.060000 4.800164 4.078330 5.498075 # HC
281 57 1 -0.240000 16.588437 13.389995 6.132703 # CT
282 57 2 0.060000 16.841618 13.937427 7.038330 # HC
283 57 2 0.060000 16.149501 14.072033 5.407361 # HC
284 57 2 0.060000 15.873646 12.605046 6.371240 # HC
285 57 2 0.060000 17.488941 12.945470 5.713873 # HC
286 58 1 -0.240000 7.205123 10.995744 16.757798 # CT
287 58 2 0.060000 6.373107 11.200234 17.428524 # HC
288 58 2 0.060000 7.111484 11.611432 15.865541 # HC
289 58 2 0.060000 7.194046 9.944804 16.476068 # HC
290 58 2 0.060000 8.141847 11.226490 17.261020 # HC
291 59 1 -0.240000 5.474413 16.432142 10.668255 # CT
292 59 2 0.060000 5.314491 16.190422 11.717034 # HC
293 59 2 0.060000 5.414989 15.523002 10.073363 # HC
294 59 2 0.060000 6.457439 16.882233 10.545589 # HC
295 59 2 0.060000 4.710768 17.132894 10.337015 # HC
296 60 1 -0.240000 15.494488 16.365639 8.639039 # CT
297 60 2 0.060000 16.082747 15.643984 8.075917 # HC
298 60 2 0.060000 15.180220 15.921157 9.581182 # HC
299 60 2 0.060000 14.617119 16.648438 8.060923 # HC
300 60 2 0.060000 16.097825 17.248968 8.838141 # HC
301 61 1 -0.240000 14.674369 7.596431 15.704167 # CT
302 61 2 0.060000 15.075513 8.411703 16.302796 # HC
303 61 2 0.060000 13.592964 7.695183 15.635074 # HC
304 61 2 0.060000 14.922598 6.646230 16.172644 # HC
305 61 2 0.060000 15.106376 7.632579 14.706174 # HC
306 62 1 -0.240000 10.765588 4.287633 3.994116 # CT
307 62 2 0.060000 11.547949 4.614200 3.312056 # HC
308 62 2 0.060000 11.007121 4.610974 5.004598 # HC
309 62 2 0.060000 10.691821 3.202335 3.968485 # HC
310 62 2 0.060000 9.815470 4.722994 3.691354 # HC
311 63 1 -0.240000 9.647910 14.745006 9.554988 # CT
312 63 2 0.060000 9.068336 15.649548 9.727728 # HC
313 63 2 0.060000 10.222842 14.852312 8.637437 # HC
314 63 2 0.060000 8.974899 13.894865 9.463961 # HC
315 63 2 0.060000 10.325553 14.583276 10.390794 # HC
316 64 1 -0.240000 8.592217 11.608356 8.315246 # CT
317 64 2 0.060000 8.055321 11.315637 9.215246 # HC
318 64 2 0.060000 9.636227 11.793381 8.559729 # HC
319 64 2 0.060000 8.149177 12.514536 7.907175 # HC
320 64 2 0.060000 8.528159 10.809908 7.578832 # HC
321 65 1 -0.240000 16.189029 1.125475 4.345895 # CT
322 65 2 0.060000 16.507311 0.626812 5.259116 # HC
323 65 2 0.060000 15.306916 0.627120 3.949057 # HC
324 65 2 0.060000 16.990667 1.083341 3.611340 # HC
325 65 2 0.060000 15.951225 2.164606 4.564030 # HC
326 66 1 -0.240000 6.290014 11.706180 7.674769 # CT
327 66 2 0.060000 6.157678 12.742787 7.371661 # HC
328 66 2 0.060000 5.542846 11.448790 8.422736 # HC
329 66 2 0.060000 7.284776 11.575603 8.095919 # HC
330 66 2 0.060000 6.174765 11.057532 6.808801 # HC
331 67 1 -0.240000 7.794293 5.693905 8.582288 # CT
332 67 2 0.060000 7.514821 6.262024 9.467205 # HC
333 67 2 0.060000 8.659465 5.073724 8.807708 # HC
334 67 2 0.060000 8.040195 6.379432 7.773861 # HC
335 67 2 0.060000 6.962727 5.060449 8.280360 # HC
336 68 1 -0.240000 3.213833 12.798163 7.838848 # CT
337 68 2 0.060000 2.227913 12.749251 7.381127 # HC
338 68 2 0.060000 3.472540 13.837115 8.032783 # HC
339 68 2 0.060000 3.948398 12.361092 7.165533 # HC
340 68 2 0.060000 3.206514 12.245212 8.775929 # HC
341 69 1 -0.240000 3.168970 17.363388 8.950294 # CT
342 69 2 0.060000 2.788843 16.693994 9.719291 # HC
343 69 2 0.060000 2.356022 17.653526 8.287799 # HC
344 69 2 0.060000 3.940881 16.855008 8.376123 # HC
345 69 2 0.060000 3.590131 18.251011 9.417922 # HC
346 70 1 -0.240000 13.775508 15.001804 4.370996 # CT
347 70 2 0.060000 14.053330 14.670213 3.372595 # HC
348 70 2 0.060000 14.673006 15.252736 4.932683 # HC
349 70 2 0.060000 13.239022 14.204738 4.881718 # HC
350 70 2 0.060000 13.136685 15.879506 4.297019 # HC
351 71 1 -0.240000 9.838135 17.580621 12.621770 # CT
352 71 2 0.060000 9.760240 17.263606 11.583803 # HC
353 71 2 0.060000 10.837425 17.968582 12.808501 # HC
354 71 2 0.060000 9.650847 16.731177 13.275479 # HC
355 71 2 0.060000 9.104055 18.359100 12.819320 # HC
356 72 1 -0.240000 12.152845 17.615807 7.234798 # CT
357 72 2 0.060000 13.008611 18.270048 7.388341 # HC
358 72 2 0.060000 12.289825 17.049015 6.316133 # HC
359 72 2 0.060000 11.247367 18.214538 7.159961 # HC
360 72 2 0.060000 12.065552 16.929635 8.074724 # HC
361 73 1 -0.240000 11.958889 5.958633 17.464724 # CT
362 73 2 0.060000 12.081910 6.697400 16.675401 # HC
363 73 2 0.060000 10.902082 5.853323 17.701434 # HC
364 73 2 0.060000 12.498792 6.282653 18.352128 # HC
365 73 2 0.060000 12.352756 5.001169 17.129970 # HC
366 74 1 -0.240000 12.984360 17.226626 2.179876 # CT
367 74 2 0.060000 13.981914 17.628857 2.344309 # HC
368 74 2 0.060000 12.864117 16.973495 1.128482 # HC
369 74 2 0.060000 12.242233 17.971117 2.460856 # HC
370 74 2 0.060000 12.849151 16.333058 2.785832 # HC
371 75 1 -0.240000 0.509753 13.632352 9.043715 # CT
372 75 2 0.060000 0.046135 13.925835 8.104105 # HC
373 75 2 0.060000 0.344290 12.570422 9.213682 # HC
374 75 2 0.060000 0.069823 14.203021 9.859048 # HC
375 75 2 0.060000 1.578740 13.830117 8.998055 # HC
376 76 1 -0.240000 15.425415 12.055133 16.617107 # CT
377 76 2 0.060000 14.638785 11.608555 16.012356 # HC
378 76 2 0.060000 16.354254 11.509277 16.464590 # HC
379 76 2 0.060000 15.145795 12.008770 17.667647 # HC
380 76 2 0.060000 15.562841 13.093907 16.323866 # HC
381 77 1 -0.240000 16.962955 15.668403 2.993949 # CT
382 77 2 0.060000 17.334570 15.062984 3.818152 # HC
383 77 2 0.060000 17.620908 15.554537 2.134825 # HC
384 77 2 0.060000 16.936859 16.713774 3.294763 # HC
385 77 2 0.060000 15.959505 15.342351 2.728042 # HC
386 78 1 -0.240000 15.607502 16.312161 12.575576 # CT
387 78 2 0.060000 14.709548 15.714636 12.432106 # HC
388 78 2 0.060000 15.327565 17.329670 12.840669 # HC
389 78 2 0.060000 16.186560 16.323614 11.654419 # HC
390 78 2 0.060000 16.206340 15.880757 13.375083 # HC
391 79 1 -0.240000 0.792330 7.344544 6.940114 # CT
392 79 2 0.060000 0.282109 7.772133 6.079427 # HC
393 79 2 0.060000 0.065838 6.857358 7.587279 # HC
394 79 2 0.060000 1.297183 8.134823 7.491976 # HC
395 79 2 0.060000 1.524181 6.613877 6.601813 # HC
396 80 1 -0.240000 6.181102 11.700851 12.474851 # CT
397 80 2 0.060000 5.810399 12.098567 11.532331 # HC
398 80 2 0.060000 5.434562 11.037900 12.907444 # HC
399 80 2 0.060000 6.379323 12.521129 13.161744 # HC
400 80 2 0.060000 7.100102 11.145819 12.297919 # HC
401 81 1 -0.240000 7.262304 14.243140 14.104918 # CT
402 81 2 0.060000 8.217156 13.973241 14.551409 # HC
403 81 2 0.060000 7.382654 15.145727 13.509253 # HC
404 81 2 0.060000 6.531909 14.422278 14.891304 # HC
405 81 2 0.060000 6.917480 13.431353 13.467718 # HC
406 82 1 -0.240000 11.366658 15.034711 3.876335 # CT
407 82 2 0.060000 12.102792 15.129597 3.080694 # HC
408 82 2 0.060000 11.875694 14.974534 4.836138 # HC
409 82 2 0.060000 10.778457 14.132643 3.720567 # HC
410 82 2 0.060000 10.709687 15.902033 3.867962 # HC
411 83 1 -0.240000 0.737587 16.895045 8.893661 # CT
412 83 2 0.060000 0.893647 17.698710 9.610396 # HC
413 83 2 0.060000 1.680086 16.382261 8.712799 # HC
414 83 2 0.060000 0.365157 17.309725 7.959153 # HC
415 83 2 0.060000 0.011477 16.189487 9.292260 # HC
416 84 1 -0.240000 2.267820 4.795669 3.322238 # CT
417 84 2 0.060000 1.750379 4.142729 4.022142 # HC
418 84 2 0.060000 3.159727 5.200892 3.795797 # HC
419 84 2 0.060000 1.608759 5.611421 3.032140 # HC
420 84 2 0.060000 2.552416 4.227675 2.438883 # HC
421 85 1 -0.240000 17.587228 1.634602 1.223164 # CT
422 85 2 0.060000 18.227952 2.087630 0.469388 # HC
423 85 2 0.060000 17.131310 2.415433 1.828478 # HC
424 85 2 0.060000 18.181537 0.982520 1.859997 # HC
425 85 2 0.060000 16.808124 1.052829 0.734836 # HC
426 86 1 -0.240000 11.825154 10.468481 16.993382 # CT
427 86 2 0.060000 12.911028 10.462951 17.062578 # HC
428 86 2 0.060000 11.474474 11.491689 16.874932 # HC
429 86 2 0.060000 11.401719 10.042715 17.900793 # HC
430 86 2 0.060000 11.513375 9.876588 16.135254 # HC
431 87 1 -0.240000 10.199691 6.668453 16.615735 # CT
432 87 2 0.060000 10.686259 6.628486 15.643317 # HC
433 87 2 0.060000 10.814986 7.242109 17.305875 # HC
434 87 2 0.060000 10.070806 5.658127 16.998618 # HC
435 87 2 0.060000 9.226733 7.145072 16.515161 # HC
436 88 1 -0.240000 5.011881 4.888391 8.402647 # CT
437 88 2 0.060000 4.057575 5.233406 8.795336 # HC
438 88 2 0.060000 5.569400 5.735500 8.008259 # HC
439 88 2 0.060000 4.837219 4.167035 7.606966 # HC
440 88 2 0.060000 5.583338 4.417627 9.199984 # HC
441 89 1 -0.240000 13.108815 11.821565 17.149668 # CT
442 89 2 0.060000 12.690677 11.696833 16.152901 # HC
443 89 2 0.060000 12.308613 11.783716 17.886014 # HC
444 89 2 0.060000 13.614845 12.782756 17.213045 # HC
445 89 2 0.060000 13.821114 11.022990 17.346733 # HC
446 90 1 -0.240000 16.574085 4.933699 5.570454 # CT
447 90 2 0.060000 16.232262 4.662261 4.573750 # HC
448 90 2 0.060000 16.584064 4.049053 6.203908 # HC
449 90 2 0.060000 15.901364 5.676154 5.994927 # HC
450 90 2 0.060000 17.578623 5.347326 5.509263 # HC
451 91 1 -0.240000 15.908907 11.346083 3.207745 # CT
452 91 2 0.060000 15.106227 10.814245 2.700997 # HC
453 91 2 0.060000 16.053185 10.924522 4.200434 # HC
454 91 2 0.060000 15.647875 12.398787 3.295186 # HC
455 91 2 0.060000 16.828332 11.246801 2.634397 # HC
456 92 1 -0.240000 15.828947 2.643667 14.265664 # CT
457 92 2 0.060000 15.476835 3.553069 14.748308 # HC
458 92 2 0.060000 16.646744 2.219174 14.844434 # HC
459 92 2 0.060000 16.178107 2.877562 13.261995 # HC
460 92 2 0.060000 15.014140 1.924861 14.207901 # HC
461 93 1 -0.240000 16.602375 13.573093 8.909927 # CT
462 93 2 0.060000 15.623828 13.966707 9.177237 # HC
463 93 2 0.060000 17.218532 14.374990 8.508339 # HC
464 93 2 0.060000 16.487156 12.793665 8.159469 # HC
465 93 2 0.060000 17.079992 13.157009 9.794621 # HC
466 94 1 -0.240000 13.999796 9.430299 14.908839 # CT
467 94 2 0.060000 14.971190 9.264930 15.370345 # HC
468 94 2 0.060000 13.761678 8.593687 14.255124 # HC
469 94 2 0.060000 14.026502 10.349234 14.326762 # HC
470 94 2 0.060000 13.239812 9.513349 15.683084 # HC
471 95 1 -0.240000 3.388762 15.183041 5.021914 # CT
472 95 2 0.060000 2.721073 15.474575 4.213743 # HC
473 95 2 0.060000 2.879979 14.478145 5.676302 # HC
474 95 2 0.060000 3.675416 16.064743 5.591476 # HC
475 95 2 0.060000 4.278569 14.714712 4.606175 # HC
476 96 1 -0.240000 4.734948 8.555186 7.873191 # CT
477 96 2 0.060000 4.654556 8.427002 6.795672 # HC
478 96 2 0.060000 3.740156 8.661583 8.301011 # HC
479 96 2 0.060000 5.320127 9.446611 8.089747 # HC
480 96 2 0.060000 5.224941 7.685583 8.306349 # HC
481 97 1 -0.240000 14.170772 6.895206 4.394064 # CT
482 97 2 0.060000 13.871391 6.803514 5.436131 # HC
483 97 2 0.060000 14.610453 5.957921 4.059192 # HC
484 97 2 0.060000 14.902458 7.694560 4.295888 # HC
485 97 2 0.060000 13.298828 7.124827 3.785035 # HC
486 98 1 -0.240000 8.978910 9.005497 12.821282 # CT
487 98 2 0.060000 9.911785 9.461333 13.146703 # HC
488 98 2 0.060000 9.178477 8.313735 12.005439 # HC
489 98 2 0.060000 8.295866 9.780901 12.480444 # HC
490 98 2 0.060000 8.529496 8.466028 13.652504 # HC
491 99 1 -0.240000 10.078867 5.664278 1.846296 # CT
492 99 2 0.060000 10.033557 4.666888 1.413743 # HC
493 99 2 0.060000 9.727146 5.629631 2.875400 # HC
494 99 2 0.060000 9.448500 6.338499 1.270074 # HC
495 99 2 0.060000 11.106228 6.022111 1.825979 # HC
496 100 1 -0.240000 11.481923 13.988539 1.056053 # CT
497 100 2 0.060000 11.560431 14.974778 1.508945 # HC
498 100 2 0.060000 12.452822 13.498112 1.084327 # HC
499 100 2 0.060000 11.156211 14.088836 0.022699 # HC
500 100 2 0.060000 10.758250 13.392425 1.608206 # HC

 Bonds

1 1 1 2
2 1 1 3
3 1 1 4
4 1 1 5
5 1 6 7
6 1 6 8
7 1 6 9
8 1 6 10
9 1 11 12
10 1 11 13
11 1 11 14
12 1 11 15
13 1 16 17
14 1 16 18
15 1 16 19
16 1 16 20
17 1 21 22
18 1 21 23
19 1 21 24
20 1 21 25
21 1 26 27
22 1 26 28
23 1 26 29
24 1 26 30
25 1 31 32
26 1 31 33
27 1 31 34
28 1 31 35
29 1 36 37
30 1 36 38
31 1 36 39
32 1 36 40
33 1 41 42
34 1 41 43
35 1 41 44
36 1 41 45
37 1 46 47
38 1 46 48
39 1 46 49
40 1 46 50
41 1 51 52
42 1 51 53
43 1 51 54
44 1 51 55
45 1 56 57
46 1 56 58
47 1 56 59
48 1 56 60
49 1 61 62
50 1 61 63
51 1 61 64
52 1 61 65
53 1 66 67
54 1 66 68
55 1 66 69
56 1 66 70
57 1 71 72
58 1 71 73
59 1 71 74
60 1 71 75
61 1 76 77
62 1 76 78
63 1 76 79
64 1 76 80
65 1 81 82
66 1 81 83
67 1 81 84
68 1 81 85
69 1 86 87
70 1 86 88
71 1 86 89
72 1 86 90
73 1 91 92
74 1 91 93
75 1 91 94
76 1 91 95
77 1 96 97
78 1 96 98
79 1 96 99
80 1 96 100
81 1 101 102
82 1 101 103
83 1 101 104
84 1 101 105
85 1 106 107
86 1 106 108
87 1 106 109
88 1 106 110
89 1 111 112
90 1 111 113
91 1 111 114
92 1 111 115
93 1 116 117
94 1 116 118
95 1 116 119
96 1 116 120
97 1 121 122
98 1 121 123
99 1 121 124
100 1 121 125
101 1 126 127
102 1 126 128
103 1 126 129
104 1 126 130
105 1 131 132
106 1 131 133
107 1 131 134
108 1 131 135
109 1 136 137
110 1 136 138
111 1 136 139
112 1 136 140
113 1 141 142
114 1 141 143
115 1 141 144
116 1 141 145
117 1 146 147
118 1 146 148
119 1 146 149
120 1 146 150
121 1 151 152
122 1 151 153
123 1 151 154
124 1 151 155
125 1 156 157
126 1 156 158
127 1 156 159
128 1 156 160
129 1 161 162
130 1 161 163
131 1 161 164
132 1 161 165
133 1 166 167
134 1 166 168
135 1 166 169
136 1 166 170
137 1 171 172
138 1 171 173
139 1 171 174
140 1 171 175
141 1 176 177
142 1 176 178
143 1 176 179
144 1 176 180
145 1 181 182
146 1 181 183
147 1 181 184
148 1 181 185
149 1 186 187
150 1 186 188
151 1 186 189
152 1 186 190
153 1 191 192
154 1 191 193
155 1 191 194
156 1 191 195
157 1 196 197
158 1 196 198
159 1 196 199
160 1 196 200
161 1 201 202
162 1 201 203
163 1 201 204
164 1 201 205
165 1 206 207
166 1 206 208
167 1 206 209
168 1 206 210
169 1 211 212
170 1 211 213
171 1 211 214
172 1 211 215
173 1 216 217
174 1 216 218
175 1 216 219
176 1 216 220
177 1 221 222
178 1 221 223
179 1 221 224
180 1 221 225
181 1 226 227
182 1 226 228
183 1 226 229
184 1 226 230
185 1 231 232
186 1 231 233
187 1 231 234
188 1 231 235
189 1 236 237
190 1 236 238
191 1 236 239
192 1 236 240
193 1 241 242
194 1 241 243
195 1 241 244
196 1 241 245
197 1 246 247
198 1 246 248
199 1 246 249
200 1 246 250
201 1 251 252
202 1 251 253
203 1 251 254
204 1 251 255
205 1 256 257
206 1 256 258
207 1 256 259
208 1 256 260
209 1 261 262
210 1 261 263
211 1 261 264
212 1 261 265
213 1 266 267
214 1 266 268
215 1 266 269
216 1 266 270
217 1 271 272
218 1 271 273
219 1 271 274
220 1 271 275
221 1 276 277
222 1 276 278
223 1 276 279
224 1 276 280
225 1 281 282
226 1 281 283
227 1 281 284
228 1 281 285
229 1 286 287
230 1 286 288
231 1 286 289
232 1 286 290
233 1 291 292
234 1 291 293
235 1 291 294
236 1 291 295
237 1 296 297
238 1 296 298
239 1 296 299
240 1 296 300
241 1 301 302
242 1 301 303
243 1 301 304
244 1 301 305
245 1 306 307
246 1 306 308
247 1 306 309
248 1 306 310
249 1 311 312
250 1 311 313
251 1 311 314
252 1 311 315
253 1 316 317
254 1 316 318
255 1 316 319
256 1 316 320
257 1 321 322
258 1 321 323
259 1 321 324
260 1 321 325
261 1 326 327
262 1 326 328
263 1 326 329
264 1 326 330
265 1 331 332
266 1 331 333
267 1 331 334
268 1 331 335
269 1 336 337
270 1 336 338
271 1 336 339
272 1 336 340
273 1 341 342
274 1 341 343
275 1 341 344
276 1 341 345
277 1 346 347
278 1 346 348
279 1 346 349
280 1 346 350
281 1 351 352
282 1 351 353
283 1 351 354
284 1 351 355
285 1 356 357
286 1 356 358
287 1 356 359
288 1 356 360
289 1 361 362
290 1 361 363
291 1 361 364
292 1 361 365
293 1 366 367
294 1 366 368
295 1 366 369