LAMMPS data file. CGCMM style. atom_style full generated by VMD/TopoTools v1.5 on Wed Nov 30 12:14:08 GMT 2016
 2000 atoms
 1600 bonds
 2400 angles
 0 dihedrals
 0 impropers
 2 atom types
 1 bond types
 1 angle types
 0 dihedral types
 0 improper types
 0.0 46.26  xlo xhi
 0.0 46.26  ylo yhi
 0.0 46.26  zlo zhi

# Pair Coeffs
#
# 1  CT
# 2  HC

# Bond Coeffs
#
# 1  CT-HC

# Angle Coeffs
#
# 1  HC-CT-HC

 Masses

 1 12.011000 # CT
 2 1.008000 # HC

 Atoms

1 1 1 -0.240000 24.110333 34.660150 10.981897 # CT
2 1 2 0.060000 25.069411 35.067354 11.295416 # HC
3 1 2 0.060000 23.363622 34.860099 11.747667 # HC
4 1 2 0.060000 24.202431 33.585689 10.836905 # HC
5 1 2 0.060000 23.805851 35.127425 10.047620 # HC
6 2 1 -0.240000 29.678585 3.038628 39.757723 # CT
7 2 2 0.060000 29.301343 3.290486 38.768685 # HC
8 2 2 0.060000 30.273699 3.865340 40.140278 # HC
9 2 2 0.060000 30.297131 2.145746 39.693451 # HC
10 2 2 0.060000 28.842208 2.852937 40.428484 # HC
11 3 1 -0.240000 10.567532 18.603745 30.379620 # CT
12 3 2 0.060000 10.875014 18.420248 29.352136 # HC
13 3 2 0.060000 11.214409 18.049160 31.056339 # HC
14 3 2 0.060000 9.537987 18.278149 30.513766 # HC
15 3 2 0.060000 10.642702 19.667391 30.596263 # HC
16 4 1 -0.240000 16.847428 40.033520 35.026408 # CT
17 4 2 0.060000 17.723909 39.938265 34.388717 # HC
18 4 2 0.060000 16.636532 39.076085 35.498429 # HC
19 4 2 0.060000 15.992896 40.337604 34.425344 # HC
20 4 2 0.060000 17.036341 40.782102 35.793130 # HC
21 5 1 -0.240000 43.966446 19.216064 17.825623 # CT
22 5 2 0.060000 43.222784 19.151796 18.617316 # HC
23 5 2 0.060000 43.717711 20.040434 17.160411 # HC
24 5 2 0.060000 43.977211 18.285552 17.261707 # HC
25 5 2 0.060000 44.948064 19.386465 18.263020 # HC
26 6 1 -0.240000 23.571714 37.095780 3.689595 # CT
27 6 2 0.060000 23.300193 36.659303 2.730582 # HC
28 6 2 0.060000 23.254585 36.433303 4.492412 # HC
29 6 2 0.060000 23.081464 38.060808 3.800702 # HC
30 6 2 0.060000 24.650580 37.229716 3.734709 # HC
31 7 1 -0.240000 32.280049 4.205338 11.685790 # CT
32 7 2 0.060000 31.984263 3.586988 12.530831 # HC
33 7 2 0.060000 31.524936 4.969644 11.513735 # HC
34 7 2 0.060000 32.376104 3.583986 10.797722 # HC
35 7 2 0.060000 33.234870 4.680733 11.900837 # HC
36 8 1 -0.240000 29.460719 25.077530 33.634529 # CT
37 8 2 0.060000 29.608746 24.175166 34.224248 # HC
38 8 2 0.060000 29.991447 25.905826 34.099519 # HC
39 8 2 0.060000 28.398610 25.308901 33.585945 # HC
40 8 2 0.060000 29.844052 24.920259 32.628423 # HC
41 9 1 -0.240000 39.512810 1.364726 13.676952 # CT
42 9 2 0.060000 40.055478 0.422934 13.726759 # HC
43 9 2 0.060000 40.185764 2.184401 13.920318 # HC
44 9 2 0.060000 38.690087 1.347360 14.388847 # HC
45 9 2 0.060000 39.119904 1.504230 12.671919 # HC
46 10 1 -0.240000 26.952457 37.861407 32.236472 # CT
47 10 2 0.060000 26.702426 38.541627 33.048091 # HC
48 10 2 0.060000 27.633952 38.354912 31.546559 # HC
49 10 2 0.060000 26.044417 37.577491 31.708433 # HC
50 10 2 0.060000 27.429021 36.971609 32.642764 # HC
51 11 1 -0.240000 19.312965 4.889363 18.518779 # CT
52 11 2 0.060000 20.170617 4.686525 19.156926 # HC
53 11 2 0.060000 19.050936 3.989258 17.966407 # HC
54 11 2 0.060000 19.561504 5.684795 17.819146 # HC
55 11 2 0.060000 18.468811 5.196870 19.132594 # HC
56 12 1 -0.240000 37.902510 15.620539 1.391571 # CT
57 12 2 0.060000 37.483217 15.808024 0.405172 # HC
58 12 2 0.060000 37.220791 15.994818 2.152582 # HC
59 12 2 0.060000 38.860412 16.128847 1.481100 # HC
60 12 2 0.060000 38.045628 14.550502 1.527455 # HC
61 13 1 -0.240000 6.460411 5.397928 10.975454 # CT
62 13 2 0.060000 5.750984 5.112261 10.201471 # HC
63 13 2 0.060000 6.629427 4.554453 11.641746 # HC
64 13 2 0.060000 6.059520 6.234591 11.544006 # HC
65 13 2 0.060000 7.401700 5.690409 10.514631 # HC
66 14 1 -0.240000 34.588716 1.959577 15.619350 # CT
67 14 2 0.060000 33.637601 1.435603 15.550258 # HC
68 14 2 0.060000 34.682874 2.651844 14.785166 # HC
69 14 2 0.060000 35.403156 1.238774 15.586188 # HC
70 14 2 0.060000 34.631259 2.512080 16.555757 # HC
71 15 1 -0.240000 13.264036 40.125417 6.502717 # CT
72 15 2 0.060000 13.058665 39.743612 7.500709 # HC
73 15 2 0.060000 13.330018 39.294713 5.803046 # HC
74 15 2 0.060000 14.206202 40.669704 6.509382 # HC
75 15 2 0.060000 12.461295 40.793629 6.197712 # HC
76 16 1 -0.240000 38.892955 33.949460 7.077108 # CT
77 16 2 0.060000 39.597015 33.695692 7.866946 # HC
78 16 2 0.060000 38.742681 33.084972 6.433649 # HC
79 16 2 0.060000 39.289486 34.774687 6.489116 # HC
80 16 2 0.060000 37.942653 34.242491 7.518682 # HC
81 17 1 -0.240000 2.420378 10.554559 38.197080 # CT
82 17 2 0.060000 3.290169 9.963401 37.917908 # HC
83 17 2 0.060000 1.865027 10.827682 37.302121 # HC
84 17 2 0.060000 2.744929 11.456548 38.711912 # HC
85 17 2 0.060000 1.781385 9.970644 38.856367 # HC
86 18 1 -0.240000 37.757965 13.016604 32.916720 # CT
87 18 2 0.060000 38.203774 13.414719 33.825951 # HC
88 18 2 0.060000 38.544115 12.760185 32.209487 # HC
89 18 2 0.060000 37.103460 13.765618 32.475619 # HC
90 18 2 0.060000 37.180515 12.125916 33.155790 # HC
91 19 1 -0.240000 41.884985 25.728836 38.963240 # CT
92 19 2 0.060000 40.833301 25.845453 38.709661 # HC
93 19 2 0.060000 42.498201 26.160764 38.174972 # HC
94 19 2 0.060000 42.118240 24.670976 39.065687 # HC
95 19 2 0.060000 42.090222 26.238126 39.902618 # HC
96 20 1 -0.240000 3.251853 28.105934 15.109645 # CT
97 20 2 0.060000 3.418833 28.040978 16.182883 # HC
98 20 2 0.060000 2.266145 27.711490 14.871414 # HC
99 20 2 0.060000 4.010461 27.525283 14.588752 # HC
100 20 2 0.060000 3.311972 29.145950 14.795509 # HC
101 21 1 -0.240000 15.489868 30.991219 11.142946 # CT
102 21 2 0.060000 14.426041 30.762793 11.148938 # HC
103 21 2 0.060000 16.058547 30.068059 11.051612 # HC
104 21 2 0.060000 15.758459 31.492376 12.070668 # HC
105 21 2 0.060000 15.716447 31.641633 10.300597 # HC
106 22 1 -0.240000 31.651898 45.229263 8.621193 # CT
107 22 2 0.060000 31.192638 46.192897 8.410404 # HC
108 22 2 0.060000 31.330271 44.880646 9.600471 # HC
109 22 2 0.060000 32.734934 45.333669 8.611076 # HC
110 22 2 0.060000 31.349776 44.509839 7.862854 # HC
111 23 1 -0.240000 13.088300 12.142887 27.267811 # CT
112 23 2 0.060000 12.172205 12.044130 26.689056 # HC
113 23 2 0.060000 13.346090 11.180782 27.705829 # HC
114 23 2 0.060000 12.939840 12.873933 28.059961 # HC
115 23 2 0.060000 13.895064 12.472699 26.616440 # HC
116 24 1 -0.240000 14.446256 36.795953 44.816299 # CT
117 24 2 0.060000 15.094741 36.107443 44.278374 # HC
118 24 2 0.060000 13.411555 36.475655 44.712548 # HC
119 24 2 0.060000 14.559070 37.796907 44.404798 # HC
120 24 2 0.060000 14.719633 36.803829 45.869452 # HC
121 25 1 -0.240000 36.211358 19.163365 26.177596 # CT
122 25 2 0.060000 36.187528 19.891769 25.369635 # HC
123 25 2 0.060000 36.156709 18.159121 25.762299 # HC
124 25 2 0.060000 35.364023 19.328535 26.839949 # HC
125 25 2 0.060000 37.137136 19.274010 26.738505 # HC
126 26 1 -0.240000 37.073416 31.112762 9.593311 # CT
127 26 2 0.060000 37.752731 30.403655 9.124655 # HC
128 26 2 0.060000 37.639996 31.796397 10.222272 # HC
129 26 2 0.060000 36.350498 30.574098 10.202573 # HC
130 26 2 0.060000 36.550434 31.676897 8.823785 # HC
131 27 1 -0.240000 38.777322 43.385970 20.067560 # CT
132 27 2 0.060000 38.227452 43.504076 20.999029 # HC
133 27 2 0.060000 38.881420 44.354409 19.582532 # HC
134 27 2 0.060000 38.236638 42.707612 19.410703 # HC
135 27 2 0.060000 39.763760 42.977791 20.277939 # HC
136 28 1 -0.240000 24.861030 7.998956 7.923258 # CT
137 28 2 0.060000 24.048858 8.414003 7.329917 # HC
138 28 2 0.060000 24.910939 8.514072 8.880403 # HC
139 28 2 0.060000 25.801618 8.129035 7.391898 # HC
140 28 2 0.060000 24.682738 6.938738 8.090822 # HC
141 29 1 -0.240000 6.221199 12.869337 10.807991 # CT
142 29 2 0.060000 6.944531 12.358978 11.440657 # HC
143 29 2 0.060000 5.856246 12.182299 10.047235 # HC
144 29 2 0.060000 6.696989 13.722234 10.328239 # HC
145 29 2 0.060000 5.387042 13.213845 11.415793 # HC
146 30 1 -0.240000 41.983095 6.665407 5.707191 # CT
147 30 2 0.060000 42.679906 6.948441 4.920879 # HC
148 30 2 0.060000 41.776991 7.528383 6.337077 # HC
149 30 2 0.060000 42.419722 5.872062 6.310458 # HC
150 30 2 0.060000 41.055774 6.312742 5.260391 # HC
151 31 1 -0.240000 24.769190 31.567131 8.062393 # CT
152 31 2 0.060000 23.872840 31.537999 7.446235 # HC
153 31 2 0.060000 24.821190 30.665886 8.669859 # HC
154 31 2 0.060000 24.735297 32.440187 8.710926 # HC
155 31 2 0.060000 25.647426 31.624455 7.422594 # HC
156 32 1 -0.240000 21.236360 40.930462 24.684904 # CT
157 32 2 0.060000 21.663000 41.931374 24.675237 # HC
158 32 2 0.060000 21.900494 40.247999 24.158470 # HC
159 32 2 0.060000 20.266347 40.944879 24.192119 # HC
160 32 2 0.060000 21.115586 40.597579 25.713753 # HC
161 33 1 -0.240000 32.295353 4.520087 29.847411 # CT
162 33 2 0.060000 32.540319 3.479152 30.048374 # HC
163 33 2 0.060000 32.505005 4.747137 28.804119 # HC
164 33 2 0.060000 32.896103 5.163984 30.486525 # HC
165 33 2 0.060000 31.240019 4.690103 30.050614 # HC
166 34 1 -0.240000 7.255330 21.929627 9.465598 # CT
167 34 2 0.060000 7.550719 22.513379 8.596161 # HC
168 34 2 0.060000 7.880043 21.041473 9.535438 # HC
169 34 2 0.060000 6.213130 21.633090 9.366332 # HC
170 34 2 0.060000 7.377412 22.530529 10.364453 # HC
171 35 1 -0.240000 11.596534 8.911523 30.582054 # CT
172 35 2 0.060000 12.378624 8.888151 29.825925 # HC
173 35 2 0.060000 11.858430 9.633817 31.352551 # HC
174 35 2 0.060000 11.494902 7.924837 31.029370 # HC
175 35 2 0.060000 10.654191 9.199275 30.120409 # HC
176 36 1 -0.240000 17.032149 15.707153 30.208254 # CT
177 36 2 0.060000 16.404664 15.120724 30.876316 # HC
178 36 2 0.060000 17.869964 16.119758 30.766631 # HC
179 36 2 0.060000 16.446980 16.518429 29.780027 # HC
180 36 2 0.060000 17.406989 15.069741 29.410051 # HC
181 37 1 -0.240000 40.254406 9.530966 13.270248 # CT
182 37 2 0.060000 39.733603 9.949255 12.411331 # HC
183 37 2 0.060000 39.579131 9.497331 14.122794 # HC
184 37 2 0.060000 41.113278 10.153675 13.512207 # HC
185 37 2 0.060000 40.591621 8.523629 13.034695 # HC
186 38 1 -0.240000 12.628442 37.499769 9.443350 # CT
187 38 2 0.060000 12.496634 37.615229 10.517239 # HC
188 38 2 0.060000 13.556916 36.967450 9.247047 # HC
189 38 2 0.060000 12.667074 38.481193 8.975073 # HC
190 38 2 0.060000 11.793178 36.935222 9.034023 # HC
191 39 1 -0.240000 44.936637 28.163991 43.154253 # CT
192 39 2 0.060000 45.111447 27.525055 44.017470 # HC
193 39 2 0.060000 44.199748 27.699285 42.502329 # HC
194 39 2 0.060000 45.868477 28.300228 42.609198 # HC
195 39 2 0.060000 44.566889 29.131380 43.487976 # HC
196 40 1 -0.240000 35.977019 39.138853 20.767603 # CT
197 40 2 0.060000 35.534341 38.248534 20.325664 # HC
198 40 2 0.060000 36.459727 38.875974 21.706672 # HC
199 40 2 0.060000 35.199096 39.876526 20.953734 # HC
200 40 2 0.060000 36.714896 39.554390 20.084380 # HC
201 41 1 -0.240000 27.601335 28.924224 29.709598 # CT
202 41 2 0.060000 27.981656 28.308879 30.522400 # HC
203 41 2 0.060000 26.954424 28.324413 29.072657 # HC
204 41 2 0.060000 28.434609 29.306095 29.123255 # HC
205 41 2 0.060000 27.034664 29.757500 30.120042 # HC
206 42 1 -0.240000 15.679939 3.944354 45.444379 # CT
207 42 2 0.060000 16.345813 3.217959 45.905792 # HC
208 42 2 0.060000 14.677418 3.526589 45.378146 # HC
209 42 2 0.060000 16.039963 4.183357 44.445764 # HC
210 42 2 0.060000 15.656544 4.849503 46.047774 # HC
211 43 1 -0.240000 32.454650 8.166297 0.699596 # CT
212 43 2 0.060000 33.332084 8.398025 0.099302 # HC
213 43 2 0.060000 32.020153 9.089242 1.078210 # HC
214 43 2 0.060000 32.743977 7.532159 1.535137 # HC
215 43 2 0.060000 31.722388 7.645772 0.085777 # HC
216 44 1 -0.240000 17.327532 22.589206 30.134753 # CT
217 44 2 0.060000 16.310841 22.967334 30.049311 # HC
218 44 2 0.060000 17.301512 21.516982 30.318111 # HC
219 44 2 0.060000 17.831155 23.086384 30.961281 # HC
220 44 2 0.060000 17.866631 22.786110 29.210346 # HC
221 45 1 -0.240000 8.534122 42.415938 4.515414 # CT
222 45 2 0.060000 9.140456 41.544460 4.277032 # HC
223 45 2 0.060000 7.480430 42.148634 4.468055 # HC
224 45 2 0.060000 8.739919 43.208104 3.798413 # HC
225 45 2 0.060000 8.775660 42.762571 5.518127 # HC
226 46 1 -0.240000 9.622123 32.148111 12.803609 # CT
227 46 2 0.060000 9.549829 32.850332 11.975599 # HC
228 46 2 0.060000 8.646540 31.702818 12.987768 # HC
229 46 2 0.060000 9.955514 32.673177 13.696428 # HC
230 46 2 0.060000 10.336588 31.366126 12.554677 # HC
231 47 1 -0.240000 30.790345 12.219873 19.562723 # CT
232 47 2 0.060000 31.216052 11.786971 18.659778 # HC
233 47 2 0.060000 31.254672 11.766452 20.436092 # HC
234 47 2 0.060000 29.718547 12.033405 19.583880 # HC
235 47 2 0.060000 30.972088 13.292639 19.571169 # HC
236 48 1 -0.240000 22.247982 36.990655 36.974569 # CT
237 48 2 0.060000 21.405707 36.485679 36.506046 # HC
238 48 2 0.060000 22.036416 37.145212 38.030653 # HC
239 48 2 0.060000 22.408073 37.952746 36.492158 # HC
240 48 2 0.060000 23.141726 36.379021 36.869433 # HC
241 49 1 -0.240000 40.832656 22.987612 8.538271 # CT
242 49 2 0.060000 41.563236 22.916780 7.735042 # HC
243 49 2 0.060000 41.208694 23.652738 9.312974 # HC
244 49 2 0.060000 40.660897 21.999591 8.960507 # HC
245 49 2 0.060000 39.897808 23.381323 8.144598 # HC
246 50 1 -0.240000 2.785148 6.736330 42.109270 # CT
247 50 2 0.060000 2.781254 7.448953 42.931520 # HC
248 50 2 0.060000 3.642114 6.928429 41.466877 # HC
249 50 2 0.060000 1.868544 6.842819 41.532671 # HC
250 50 2 0.060000 2.848673 5.725133 42.505974 # HC
251 51 1 -0.240000 6.054269 18.298617 39.106544 # CT
252 51 2 0.060000 5.759827 18.070862 40.128979 # HC
253 51 2 0.060000 6.282941 19.359103 39.022637 # HC
254 51 2 0.060000 5.239365 18.048691 38.430201 # HC
255 51 2 0.060000 6.934917 17.715836 38.844335 # HC
256 52 1 -0.240000 25.092286 18.925956 21.427865 # CT
257 52 2 0.060000 25.443102 19.422137 20.525272 # HC
258 52 2 0.060000 24.608091 19.653038 22.076609 # HC
259 52 2 0.060000 25.937504 18.481032 21.949037 # HC
260 52 2 0.060000 24.380465 18.147626 21.160578 # HC
261 53 1 -0.240000 19.951541 33.988090 13.292644 # CT
262 53 2 0.060000 19.283038 34.829977 13.460790 # HC
263 53 2 0.060000 19.365184 33.084783 13.137131 # HC
264 53 2 0.060000 20.595647 33.857569 14.159858 # HC
265 53 2 0.060000 20.562293 34.180001 12.412827 # HC
266 54 1 -0.240000 21.070826 9.105000 15.029626 # CT
267 54 2 0.060000 20.858353 8.057272 15.232264 # HC
268 54 2 0.060000 21.060800 9.275879 13.955074 # HC
269 54 2 0.060000 22.050597 9.360092 15.428308 # HC
270 54 2 0.060000 20.313591 9.726767 15.502837 # HC
271 55 1 -0.240000 34.376150 12.413871 0.819001 # CT
272 55 2 0.060000 34.698861 13.046647 1.643254 # HC
273 55 2 0.060000 35.094322 12.484704 0.004646 # HC
274 55 2 0.060000 33.399105 12.742387 0.470531 # HC
275 55 2 0.060000 34.312300 11.381764 1.157536 # HC
276 56 1 -0.240000 7.273053 9.474838 26.836383 # CT
277 56 2 0.060000 7.317585 10.560469 26.894377 # HC
278 56 2 0.060000 8.255582 9.059541 27.051154 # HC
279 56 2 0.060000 6.964285 9.177404 25.836300 # HC
280 56 2 0.060000 6.554781 9.101919 27.563669 # HC
281 57 1 -0.240000 29.678686 27.875060 43.993843 # CT
282 57 2 0.060000 28.733973 27.942339 43.458183 # HC
283 57 2 0.060000 29.493649 27.934736 45.064432 # HC
284 57 2 0.060000 30.326332 28.695469 43.691431 # HC
285 57 2 0.060000 30.160803 26.927728 43.761347 # HC
286 58 1 -0.240000 12.987100 8.737973 27.252708 # CT
287 58 2 0.060000 13.788335 8.361765 27.885505 # HC
288 58 2 0.060000 12.780226 8.018382 26.463180 # HC
289 58 2 0.060000 13.288752 9.685168 26.810218 # HC
290 58 2 0.060000 12.091095 8.886585 27.851889 # HC
291 59 1 -0.240000 14.229523 17.388049 17.173293 # CT
292 59 2 0.060000 13.869259 18.247278 17.735321 # HC
293 59 2 0.060000 14.747704 17.730414 16.279852 # HC
294 59 2 0.060000 13.386414 16.762866 16.886440 # HC
295 59 2 0.060000 14.914697 16.811629 17.791520 # HC
296 60 1 -0.240000 27.520181 5.597455 4.076487 # CT
297 60 2 0.060000 26.625150 5.018860 3.857194 # HC
298 60 2 0.060000 27.307032 6.657010 3.950497 # HC
299 60 2 0.060000 28.317224 5.304442 3.396168 # HC
300 60 2 0.060000 27.831333 5.409530 5.102058 # HC
301 61 1 -0.240000 44.317157 8.214939 6.201174 # CT
302 61 2 0.060000 43.901529 9.208813 6.354174 # HC
303 61 2 0.060000 45.338129 8.187053 6.576407 # HC
304 61 2 0.060000 44.314722 7.980403 5.138651 # HC
305 61 2 0.060000 43.714279 7.483484 6.735440 # HC
306 62 1 -0.240000 15.984045 35.623459 15.960504 # CT
307 62 2 0.060000 16.367137 36.025339 15.024729 # HC
308 62 2 0.060000 16.726650 34.962111 16.402227 # HC
309 62 2 0.060000 15.069924 35.065400 15.768350 # HC
310 62 2 0.060000 15.772461 36.440943 16.646710 # HC
311 63 1 -0.240000 41.106178 16.991210 27.075905 # CT
312 63 2 0.060000 40.440890 16.397838 26.452013 # HC
313 63 2 0.060000 42.123194 16.616319 26.980521 # HC
314 63 2 0.060000 40.789219 16.919810 28.114369 # HC
315 63 2 0.060000 41.071430 18.030854 26.756748 # HC
316 64 1 -0.240000 33.992397 12.837697 15.489839 # CT
317 64 2 0.060000 34.270992 12.654343 14.454123 # HC
318 64 2 0.060000 33.274331 12.085829 15.810833 # HC
319 64 2 0.060000 33.545475 13.826059 15.575695 # HC
320 64 2 0.060000 34.878751 12.784569 16.118712 # HC
321 65 1 -0.240000 30.761026 29.782042 31.729769 # CT
322 65 2 0.060000 30.231312 30.503190 32.348874 # HC
323 65 2 0.060000 30.557675 28.775794 32.090428 # HC
324 65 2 0.060000 31.830406 29.976433 31.780858 # HC
325 65 2 0.060000 30.424743 29.872731 30.698936 # HC
326 66 1 -0.240000 25.378742 44.537520 38.571801 # CT
327 66 2 0.060000 25.990355 44.921077 37.757703 # HC
328 66 2 0.060000 25.557490 45.127144 39.468659 # HC
329 66 2 0.060000 25.639410 43.498527 38.762893 # HC
330 66 2 0.060000 24.327732 44.603314 38.297981 # HC
331 67 1 -0.240000 4.073966 14.450339 18.573909 # CT
332 67 2 0.060000 4.348267 15.404483 19.019230 # HC
333 67 2 0.060000 4.568532 13.643740 19.111277 # HC
334 67 2 0.060000 4.383522 14.434529 17.530887 # HC
335 67 2 0.060000 2.995574 14.318583 18.634223 # HC
336 68 1 -0.240000 17.930785 37.118148 41.349790 # CT
337 68 2 0.060000 18.046025 38.198576 41.407551 # HC
338 68 2 0.060000 18.302896 36.764475 40.390410 # HC
339 68 2 0.060000 16.878366 36.859867 41.448154 # HC
340 68 2 0.060000 18.495826 36.649657 42.153018 # HC
341 69 1 -0.240000 39.066937 35.736272 38.670021 # CT
342 69 2 0.060000 38.130926 35.203606 38.514806 # HC
343 69 2 0.060000 39.141827 36.042067 39.711579 # HC
344 69 2 0.060000 39.093696 36.616414 38.030800 # HC
345 69 2 0.060000 39.901295 35.083042 38.422909 # HC
346 70 1 -0.240000 37.745591 32.773903 18.557233 # CT
347 70 2 0.060000 37.247758 33.316144 19.358531 # HC
348 70 2 0.060000 38.610398 33.340727 18.218438 # HC
349 70 2 0.060000 37.054395 32.636684 17.728144 # HC
350 70 2 0.060000 38.069813 31.802075 18.923781 # HC
351 71 1 -0.240000 23.800878 27.131818 43.607730 # CT
352 71 2 0.060000 24.843194 26.960481 43.346651 # HC
353 71 2 0.060000 23.468499 28.073062 43.174665 # HC
354 71 2 0.060000 23.700551 27.175219 44.690329 # HC
355 71 2 0.060000 23.191260 26.318543 43.219301 # HC
356 72 1 -0.240000 2.426423 17.620066 26.937730 # CT
357 72 2 0.060000 2.192874 16.752187 27.551066 # HC
358 72 2 0.060000 1.506598 18.033715 26.529345 # HC
359 72 2 0.060000 3.083266 17.322245 26.122973 # HC
360 72 2 0.060000 2.922947 18.372115 27.547496 # HC
361 73 1 -0.240000 36.592340 34.557069 32.864101 # CT
362 73 2 0.060000 37.229759 35.116441 32.182382 # HC
363 73 2 0.060000 37.194553 34.155344 33.676455 # HC
364 73 2 0.060000 36.116233 33.739343 32.326870 # HC
365 73 2 0.060000 35.828823 35.217104 33.270699 # HC
366 74 1 -0.240000 5.418560 17.700677 35.771738 # CT
367 74 2 0.060000 5.367405 17.959284 34.716064 # HC
368 74 2 0.060000 4.698687 18.298597 36.326930 # HC
369 74 2 0.060000 6.420732 17.899889 36.145816 # HC
370 74 2 0.060000 5.187428 16.644968 35.898169 # HC
371 75 1 -0.240000 9.894177 4.399946 17.852114 # CT
372 75 2 0.060000 9.367280 3.702699 18.500316 # HC
373 75 2 0.060000 10.036607 5.343839 18.374361 # HC
374 75 2 0.060000 9.309618 4.569135 16.950096 # HC
375 75 2 0.060000 10.863185 3.984146 17.583668 # HC
376 76 1 -0.240000 37.021598 12.768017 36.128952 # CT
377 76 2 0.060000 36.710161 13.778339 35.871665 # HC
378 76 2 0.060000 37.671458 12.799820 37.001095 # HC
379 76 2 0.060000 37.560234 12.330062 35.291076 # HC
380 76 2 0.060000 36.144582 12.163837 36.351968 # HC
381 77 1 -0.240000 25.957963 26.218843 31.714137 # CT
382 77 2 0.060000 25.834959 25.138178 31.745361 # HC
383 77 2 0.060000 25.803722 26.630352 32.709542 # HC
384 77 2 0.060000 25.230183 26.647047 31.027881 # HC
385 77 2 0.060000 26.962956 26.459817 31.373770 # HC
386 78 1 -0.240000 9.146304 27.792208 21.085714 # CT
387 78 2 0.060000 8.795138 28.813667 20.954394 # HC
388 78 2 0.060000 9.860025 27.550312 20.300825 # HC
389 78 2 0.060000 8.301637 27.108445 21.031160 # HC
390 78 2 0.060000 9.628406 27.696380 22.056447 # HC
391 79 1 -0.240000 12.560480 20.856633 5.046805 # CT
392 79 2 0.060000 13.442624 20.902733 4.411481 # HC
393 79 2 0.060000 12.781715 21.315186 6.008442 # HC
394 79 2 0.060000 12.275953 19.817256 5.197505 # HC
395 79 2 0.060000 11.741629 21.391331 4.569827 # HC
396 80 1 -0.240000 7.393146 10.993405 18.584073 # CT
397 80 2 0.060000 8.046195 10.406117 17.941764 # HC
398 80 2 0.060000 7.965696 11.793207 19.049332 # HC
399 80 2 0.060000 6.971757 10.352625 19.355955 # HC
400 80 2 0.060000 6.588943 11.421670 17.989283 # HC
401 81 1 -0.240000 30.204147 27.732086 10.233517 # CT
402 81 2 0.060000 29.116442 27.703806 10.239702 # HC
403 81 2 0.060000 30.588440 27.076942 11.012662 # HC
404 81 2 0.060000 30.541548 28.750211 10.416692 # HC
405 81 2 0.060000 30.570179 27.397404 9.265046 # HC
406 82 1 -0.240000 43.986095 10.169424 20.417283 # CT
407 82 2 0.060000 44.119598 9.337518 21.105796 # HC
408 82 2 0.060000 44.662001 10.053146 19.572539 # HC
409 82 2 0.060000 44.204453 11.103675 20.930570 # HC
410 82 2 0.060000 42.958359 10.183382 20.060222 # HC
411 83 1 -0.240000 13.514170 39.105234 20.844238 # CT
412 83 2 0.060000 13.005411 39.670862 21.622164 # HC
413 83 2 0.060000 13.814861 39.778483 20.044061 # HC
414 83 2 0.060000 12.841118 38.347964 20.447359 # HC
415 83 2 0.060000 14.395274 38.623625 21.263329 # HC
416 84 1 -0.240000 14.739547 30.917017 16.562629 # CT
417 84 2 0.060000 14.626708 31.997034 16.631696 # HC
418 84 2 0.060000 14.659878 30.609840 15.521833 # HC
419 84 2 0.060000 13.958006 30.432735 17.144552 # HC
420 84 2 0.060000 15.713564 30.628434 16.952424 # HC
421 85 1 -0.240000 5.125346 13.332152 36.809496 # CT
422 85 2 0.060000 6.088750 12.894296 36.556362 # HC
423 85 2 0.060000 4.520674 12.597706 37.337627 # HC
424 85 2 0.060000 4.613944 13.635151 35.898107 # HC
425 85 2 0.060000 5.277983 14.201439 37.445869 # HC
426 86 1 -0.240000 32.284247 8.696363 42.628638 # CT
427 86 2 0.060000 32.159185 8.755242 43.707913 # HC
428 86 2 0.060000 33.069267 9.382143 42.316529 # HC
429 86 2 0.060000 31.350555 8.967325 42.139998 # HC
430 86 2 0.060000 32.557972 7.680778 42.350089 # HC
431 87 1 -0.240000 23.570806 2.464330 2.335723 # CT
432 87 2 0.060000 23.481691 2.307203 1.262732 # HC
433 87 2 0.060000 24.620578 2.435653 2.620539 # HC
434 87 2 0.060000 23.030383 1.680909 2.863137 # HC
435 87 2 0.060000 23.150588 3.433523 2.596509 # HC
436 88 1 -0.240000 23.725561 23.444833 34.330732 # CT
437 88 2 0.060000 22.806804 23.978470 34.565379 # HC
438 88 2 0.060000 24.321085 23.333182 35.234528 # HC
439 88 2 0.060000 24.291911 24.005967 33.590229 # HC
440 88 2 0.060000 23.482478 22.461733 33.932797 # HC
441 89 1 -0.240000 20.768019 24.399426 26.157179 # CT
442 89 2 0.060000 21.536032 24.571490 25.405854 # HC
443 89 2 0.060000 20.006382 25.172775 26.081005 # HC
444 89 2 0.060000 21.216847 24.428751 27.147968 # HC
445 89 2 0.060000 20.312809 23.424716 25.993922 # HC
446 90 1 -0.240000 31.461218 19.205294 1.673877 # CT
447 90 2 0.060000 32.503073 19.064476 1.954326 # HC
448 90 2 0.060000 31.353734 19.072476 0.599276 # HC
449 90 2 0.060000 31.144119 20.209216 1.948754 # HC
450 90 2 0.060000 30.843939 18.475040 2.193130 # HC
451 91 1 -0.240000 34.419097 26.987082 31.943412 # CT
452 91 2 0.060000 34.823143 27.589446 31.132335 # HC
453 91 2 0.060000 35.009348 26.079197 32.049767 # HC
454 91 2 0.060000 33.386857 26.724587 31.720821 # HC
455 91 2 0.060000 34.457022 27.555061 32.870714 # HC
456 92 1 -0.240000 16.183119 41.325540 8.740365 # CT
457 92 2 0.060000 16.168696 40.350855 8.256915 # HC
458 92 2 0.060000 16.036965 42.103111 7.993382 # HC
459 92 2 0.060000 17.142097 41.471772 9.233262 # HC
460 92 2 0.060000 15.384751 41.376446 9.477891 # HC
461 93 1 -0.240000 35.258749 28.182973 38.480663 # CT
462 93 2 0.060000 34.375808 28.100042 37.850203 # HC
463 93 2 0.060000 35.444575 29.230581 38.708587 # HC
464 93 2 0.060000 36.117952 27.767577 37.957992 # HC
465 93 2 0.060000 35.096693 27.633713 39.405854 # HC
466 94 1 -0.240000 11.167105 4.435763 45.366861 # CT
467 94 2 0.060000 11.325093 5.097756 44.517893 # HC
468 94 2 0.060000 12.052245 3.821008 45.517076 # HC
469 94 2 0.060000 10.309303 3.795144 45.172561 # HC
470 94 2 0.060000 10.981778 5.029103 46.259906 # HC
471 95 1 -0.240000 39.290473 33.125644 14.185794 # CT
472 95 2 0.060000 38.575565 32.823115 13.423348 # HC
473 95 2 0.060000 39.723698 32.241066 14.648179 # HC
474 95 2 0.060000 38.783179 33.719386 14.943483 # HC
475 95 2 0.060000 40.079440 33.718999 13.728205 # HC
476 96 1 -0.240000 41.001458 41.025957 1.404689 # CT
477 96 2 0.060000 41.064506 40.797572 0.342707 # HC
478 96 2 0.060000 41.944667 40.775821 1.886095 # HC
479 96 2 0.060000 40.199406 40.443802 1.853887 # HC
480 96 2 0.060000 40.797256 42.086599 1.536095 # HC
481 97 1 -0.240000 37.227370 31.618037 40.095811 # CT
482 97 2 0.060000 37.513383 31.021500 40.959687 # HC
483 97 2 0.060000 36.188095 31.924732 40.194843 # HC
484 97 2 0.060000 37.346089 31.025835 39.190729 # HC
485 97 2 0.060000 37.861884 32.500065 40.037960 # HC
486 98 1 -0.240000 30.836319 33.710515 30.735947 # CT
487 98 2 0.060000 31.327052 33.965862 31.672921 # HC
488 98 2 0.060000 31.056841 32.675893 30.481213 # HC
489 98 2 0.060000 31.200502 34.364089 29.945895 # HC
490 98 2 0.060000 29.760906 33.836206 30.843726 # HC
491 99 1 -0.240000 7.071438 4.945599 16.031262 # CT
492 99 2 0.060000 7.188551 5.324055 15.017854 # HC
493 99 2 0.060000 6.923541 5.779121 16.714877 # HC
494 99 2 0.060000 7.965063 4.395192 16.318415 # HC
495 99 2 0.060000 6.208627 4.284037 16.073931 # HC
496 100 1 -0.240000 13.738784 18.034263 21.242637 # CT
497 100 2 0.060000 13.402669 17.010578 21.090857 # HC
498 100 2 0.060000 13.297307 18.429420 22.155276 # HC
499 100 2 0.060000 13.431715 18.646017 20.396803 # HC
500 100 2 0.060000 14.823415 18.051067 21.327609 # HC
501 101 1 -0.240000 41.319139 2.891343 1.180664 # CT
502 101 2 0.060000 40.987047 3.436961 2.061548 # HC
503 101 2 0.060000 41.601304 3.596993 0.401945 # HC
504 101 2 0.060000 40.511189 2.257718 0.820515 # HC
505 101 2 0.060000 42.176991 2.273702 1.438611 # HC
506 102 1 -0.240000 37.318112 16.799511 7.529761 # CT
507 102 2 0.060000 36.974579 17.831808 7.546718 # HC
508 102 2 0.060000 37.160991 16.348859 8.507610 # HC
509 102 2 0.060000 38.377949 16.773928 7.284688 # HC
510 102 2 0.060000 36.758962 16.243437 6.780054 # HC
511 103 1 -0.240000 34.933434 32.608892 14.831511 # CT
512 103 2 0.060000 34.849619 33.625844 14.453722 # HC
513 103 2 0.060000 35.931106 32.453737 15.237148 # HC
514 103 2 0.060000 34.758195 31.905058 14.020414 # HC
515 103 2 0.060000 34.194844 32.450902 15.614743 # HC
516 104 1 -0.240000 17.937822 44.284637 33.107465 # CT
517 104 2 0.060000 18.988656 44.003114 33.086626 # HC
518 104 2 0.060000 17.804738 45.141014 33.765393 # HC
519 104 2 0.060000 17.345725 43.449150 33.475369 # HC
520 104 2 0.060000 17.612148 44.545266 32.102509 # HC
521 105 1 -0.240000 21.977625 22.754235 8.956280 # CT
522 105 2 0.060000 20.939522 22.503182 8.748302 # HC
523 105 2 0.060000 22.311860 23.520832 8.260164 # HC
524 105 2 0.060000 22.595561 21.865979 8.841702 # HC
525 105 2 0.060000 22.063587 23.126935 9.974922 # HC
526 106 1 -0.240000 10.573202 16.482591 41.691760 # CT
527 106 2 0.060000 10.666510 17.016092 42.635482 # HC
528 106 2 0.060000 9.815219 15.707713 41.786570 # HC
529 106 2 0.060000 11.527821 16.026882 41.436806 # HC
530 106 2 0.060000 10.283268 17.179635 40.908181 # HC
531 107 1 -0.240000 3.808924 41.268111 37.488757 # CT
532 107 2 0.060000 3.514816 40.636377 36.653081 # HC
533 107 2 0.060000 4.572450 40.761322 38.075404 # HC
534 107 2 0.060000 2.942171 41.466846 38.115823 # HC
535 107 2 0.060000 4.206251 42.207885 37.110757 # HC
536 108 1 -0.240000 14.015806 41.834520 29.729982 # CT
537 108 2 0.060000 13.827409 41.738744 28.662614 # HC
538 108 2 0.060000 14.972596 42.328495 29.886519 # HC
539 108 2 0.060000 14.039344 40.846067 30.184267 # HC
540 108 2 0.060000 13.223908 42.424754 30.186545 # HC
541 109 1 -0.240000 21.891955 22.860474 25.275410 # CT
542 109 2 0.060000 21.941335 23.309447 26.265323 # HC
543 109 2 0.060000 20.861980 22.868185 24.924620 # HC
544 109 2 0.060000 22.250809 21.834407 25.324205 # HC
545 109 2 0.060000 22.513676 23.429822 24.587489 # HC
546 110 1 -0.240000 38.309066 19.599818 33.405192 # CT
547 110 2 0.060000 37.801071 19.048669 34.193936 # HC
548 110 2 0.060000 37.780656 20.531967 33.215869 # HC
549 110 2 0.060000 38.325129 19.001058 32.496788 # HC
550 110 2 0.060000 39.329389 19.817582 33.714140 # HC
551 111 1 -0.240000 37.002494 20.277999 36.848536 # CT
552 111 2 0.060000 36.056811 20.028127 37.325180 # HC
553 111 2 0.060000 37.824496 19.902842 37.454781 # HC
554 111 2 0.060000 37.086101 21.358667 36.752956 # HC
555 111 2 0.060000 37.042592 19.822386 35.861249 # HC
556 112 1 -0.240000 23.139733 39.388344 20.895072 # CT
557 112 2 0.060000 22.888060 39.933139 21.802707 # HC
558 112 2 0.060000 23.139671 40.072941 20.049324 # HC
559 112 2 0.060000 22.404314 38.604199 20.727009 # HC
560 112 2 0.060000 24.126857 38.943095 21.001219 # HC
561 113 1 -0.240000 6.101453 29.493534 40.406109 # CT
562 113 2 0.060000 5.952662 29.618273 41.476736 # HC
563 113 2 0.060000 7.134488 29.724449 40.154156 # HC