2002
# CELL(abcABC):   87.41873    87.41873    87.41873    90.00000    90.00000    90.00000  Step:         100  Bead:       0 x_centroid{angstrom}  cell{atomic_unit}
       C  2.39372e+01  3.44919e+01  1.10929e+01
       H  2.49367e+01  3.45171e+01  1.15482e+01
       H  2.31901e+01  3.48143e+01  1.18308e+01
       H  2.37093e+01  3.34687e+01  1.07653e+01
       H  2.39125e+01  3.51672e+01  1.02268e+01
       C  2.96491e+01  2.32358e+00  3.93991e+01
       H  2.92430e+01  2.81702e+00  3.85052e+01
       H  3.06524e+01  2.71740e+00  3.96102e+01
       H  2.97095e+01  1.24081e+00  3.92245e+01
       H  2.89907e+01  2.52032e+00  4.02564e+01
       C  1.05939e+01  1.92772e+01  3.04798e+01
       H  1.09576e+01  1.90419e+01  2.94703e+01
       H  1.12330e+01  1.87813e+01  3.12230e+01
       H  9.56080e+00  1.89203e+01  3.05893e+01
       H  1.06251e+01  2.03639e+01  3.06364e+01
       C  1.69641e+01  4.01157e+01  3.50582e+01
       H  1.78372e+01  4.00129e+01  3.43996e+01
       H  1.67560e+01  3.91524e+01  3.55435e+01
       H  1.60920e+01  4.04227e+01  3.44648e+01
       H  1.71710e+01  4.08746e+01  3.58250e+01
       C  4.43191e+01  1.94121e+01  1.86480e+01
       H  4.34468e+01  1.93054e+01  1.93069e+01
       H  4.41516e+01  2.02432e+01  1.79494e+01
       H  4.44666e+01  1.84825e+01  1.80817e+01
       H  4.52125e+01  1.96174e+01  1.92540e+01
       C  2.36317e+01  3.69568e+01  3.77830e+00
       H  2.33682e+01  3.65667e+01  2.78579e+00
       H  2.32597e+01  3.62714e+01  4.55188e+00
       H  2.31751e+01  3.79466e+01  3.91530e+00
       H  2.47237e+01  3.70433e+01  3.85967e+00
       C  3.23942e+01  4.04271e+00  1.17630e+01
       H  3.21046e+01  3.42106e+00  1.26212e+01
       H  3.16282e+01  4.81156e+00  1.15925e+01
       H  3.24854e+01  3.41219e+00  1.08681e+01
       H  3.33585e+01  4.52624e+00  1.19701e+01
       C  2.99025e+01  2.54344e+01  3.33600e+01
       H  2.96098e+01  2.45495e+01  3.39414e+01
       H  3.04571e+01  2.61293e+01  3.40052e+01
       H  2.90028e+01  2.59319e+01  3.29729e+01
       H  3.05408e+01  2.51259e+01  3.25208e+01
       C  3.97794e+01  1.03746e+00  1.35042e+01
       H  4.06022e+01  3.64133e-01  1.32279e+01
       H  4.01877e+01  1.93832e+00  1.39822e+01
       H  3.91058e+01  5.25044e-01  1.42044e+01
       H  3.92210e+01  1.32311e+00  1.26023e+01
       C  2.71299e+01  3.78881e+01  3.22572e+01
       H  2.68326e+01  3.85429e+01  3.30876e+01
       H  2.78955e+01  3.83909e+01  3.16508e+01
       H  2.62535e+01  3.76686e+01  3.16323e+01
       H  2.75379e+01  3.69504e+01  3.26584e+01
       C  1.88901e+01  4.78817e+00  1.87380e+01
       H  1.99120e+01  4.93689e+00  1.91124e+01
       H  1.88493e+01  3.86546e+00  1.81433e+01
       H  1.86022e+01  5.64208e+00  1.81098e+01
       H  1.81975e+01  4.70732e+00  1.95869e+01
       C  3.78622e+01  1.55836e+01  1.36980e+00
       H  3.74345e+01  1.58066e+01  3.82890e-01
       H  3.71823e+01  1.59443e+01  2.15356e+00
       H  3.88344e+01  1.60854e+01  1.46908e+00
       H  3.79979e+01  1.44985e+01  1.47346e+00
       C  6.50679e+00  5.42986e+00  1.10647e+01
       H  5.80149e+00  5.16008e+00  1.02668e+01
       H  6.64694e+00  4.57125e+00  1.17355e+01
       H  6.10630e+00  6.27872e+00  1.16354e+01
       H  7.47214e+00  5.70954e+00  1.06212e+01
       C  3.33622e+01  2.03510e+00  1.66242e+01
       H  3.23547e+01  1.59865e+00  1.66655e+01
       H  3.35253e+01  2.48741e+00  1.56367e+01
       H  3.41091e+01  1.24795e+00  1.67942e+01
       H  3.34591e+01  2.80610e+00  1.74009e+01
       C  1.33462e+01  4.02107e+01  6.42274e+00
       H  1.34364e+01  4.00391e+01  7.50374e+00
       H  1.32848e+01  3.92451e+01  5.90239e+00
       H  1.42243e+01  4.07646e+01  6.06449e+00
       H  1.24375e+01  4.07937e+01  6.22001e+00
       C  3.90876e+01  3.42245e+01  7.05572e+00
       H  3.97553e+01  3.38425e+01  7.83987e+00
       H  3.87658e+01  3.33942e+01  6.41247e+00
       H  3.96219e+01  3.49700e+01  6.45104e+00
       H  3.82076e+01  3.46910e+01  7.51918e+00
       C  2.39271e+00  1.05365e+01  3.81911e+01
       H  3.31603e+00  1.00067e+01  3.79198e+01
       H  1.86980e+00  1.08518e+01  3.72779e+01
       H  2.64141e+00  1.14203e+01  3.87942e+01
       H  1.74390e+00  9.86727e+00  3.87725e+01
       C  3.75449e+01  1.33605e+01  3.27617e+01
       H  3.80849e+01  1.37859e+01  3.36186e+01
       H  3.81414e+01  1.34950e+01  3.18491e+01
       H  3.65795e+01  1.38722e+01  3.26470e+01
       H  3.73736e+01  1.22890e+01  3.29324e+01
       C  4.18643e+01  2.57263e+01  3.89854e+01
       H  4.08016e+01  2.58518e+01  3.87373e+01
       H  4.24806e+01  2.61537e+01  3.81828e+01
       H  4.20917e+01  2.46568e+01  3.90916e+01
       H  4.20834e+01  2.62428e+01  3.99299e+01
       C  3.28070e+00  2.82991e+01  1.52235e+01
       H  3.34330e+00  2.80805e+01  1.62983e+01
       H  2.33820e+00  2.79015e+01  1.48233e+01
       H  4.12595e+00  2.78276e+01  1.47043e+01
       H  3.31547e+00  2.93858e+01  1.50676e+01
       C  1.55691e+01  3.08414e+01  1.08081e+01
       H  1.47503e+01  3.01844e+01  1.11355e+01
       H  1.64642e+01  3.02338e+01  1.06121e+01
       H  1.57877e+01  3.15665e+01  1.16001e+01
       H  1.52715e+01  3.13726e+01  9.89661e+00
       C  3.17347e+01  4.52415e+01  8.68191e+00
       H  3.12720e+01  4.62148e+01  8.46901e+00
       H  3.14037e+01  4.48865e+01  9.66735e+00
       H  3.28281e+01  4.53475e+01  8.67939e+00
       H  3.14349e+01  4.45175e+01  7.91202e+00
       C  1.38396e+01  1.31328e+01  2.64543e+01
       H  1.29633e+01  1.26418e+01  2.60099e+01
       H  1.45813e+01  1.23726e+01  2.67356e+01
       H  1.35317e+01  1.36922e+01  2.73481e+01
       H  1.42820e+01  1.38240e+01  2.57242e+01
       C  1.45505e+01  3.68227e+01  4.47760e+01
       H  1.52102e+01  3.61352e+01  4.42294e+01
       H  1.35086e+01  3.64901e+01  4.46731e+01
       H  1.46541e+01  3.78353e+01  4.43630e+01
       H  1.48290e+01  3.68303e+01  4.58387e+01
       C  3.62511e+01  1.90157e+01  2.60279e+01
       H  3.61957e+01  1.98370e+01  2.53005e+01
       H  3.62127e+01  1.80539e+01  2.54987e+01
       H  3.54039e+01  1.90851e+01  2.67237e+01
       H  3.71925e+01  1.90872e+01  2.65896e+01
       C  3.74460e+01  3.07094e+01  1.04014e+01
       H  3.82427e+01  3.01245e+01  9.92198e+00
       H  3.78819e+01  3.15911e+01  1.08906e+01
       H  3.69369e+01  3.00885e+01  1.11512e+01
       H  3.67217e+01  3.10329e+01  9.64158e+00
       C  3.94110e+01  4.40747e+01  1.97203e+01
       H  3.92151e+01  4.45709e+01  2.06807e+01
       H  3.98949e+01  4.47829e+01  1.90340e+01
       H  3.84625e+01  4.37324e+01  1.92849e+01
       H  4.00713e+01  4.32120e+01  1.98821e+01
       C  2.48227e+01  7.89616e+00  7.90640e+00
       H  2.40126e+01  8.32198e+00  7.29874e+00
       H  2.48884e+01  8.43750e+00  8.86003e+00
       H  2.57742e+01  7.99023e+00  7.36551e+00
       H  2.46154e+01  6.83517e+00  8.10146e+00
       C  6.24834e+00  1.28514e+01  1.08204e+01
       H  6.98622e+00  1.23399e+01  1.14534e+01
       H  5.87700e+00  1.21558e+01  1.00556e+01
       H  6.72054e+00  1.37146e+01  1.03319e+01
       H  5.40947e+00  1.31954e+01  1.14406e+01
       C  4.14925e+01  6.62693e+00  5.74819e+00
       H  4.20902e+01  6.54719e+00  4.83003e+00
       H  4.13002e+01  7.68575e+00  5.96830e+00
       H  4.20430e+01  6.17331e+00  6.58360e+00
       H  4.05376e+01  6.10186e+00  5.61011e+00
       C  2.47194e+01  3.14352e+01  8.21831e+00
       H  2.37171e+01  3.14125e+01  7.76958e+00
       H  2.48286e+01  3.05905e+01  8.91196e+00
       H  2.48551e+01  3.23784e+01  8.76461e+00
       H  2.54769e+01  3.13592e+01  7.42627e+00
       C  2.12296e+01  4.08937e+01  2.47293e+01
       H  2.17089e+01  4.18765e+01  2.46229e+01
       H  2.19150e+01  4.01116e+01  2.43757e+01
       H  2.03075e+01  4.08698e+01  2.41326e+01
       H  2.09867e+01  4.07172e+01  2.57859e+01
       C  3.24935e+01  4.25392e+00  2.93993e+01
       H  3.27911e+01  3.27446e+00  2.97975e+01
       H  3.28724e+01  4.36245e+00  2.83739e+01
       H  3.29133e+01  5.04871e+00  3.00302e+01
       H  3.13976e+01  4.33024e+00  2.93954e+01
       C  7.23142e+00  2.18902e+01  9.58942e+00
       H  7.54522e+00  2.24860e+01  8.72147e+00
       H  7.84976e+00  2.09845e+01  9.65459e+00
       H  6.17642e+00  2.16058e+01  9.47605e+00
       H  7.35438e+00  2.24840e+01  1.05054e+01
       C  1.15294e+01  7.78667e+00  3.08295e+01
       H  1.21715e+01  7.56900e+00  2.99654e+01
       H  1.18196e+01  8.75086e+00  3.12680e+01
       H  1.16423e+01  6.99322e+00  3.15802e+01
       H  1.04815e+01  7.83480e+00  3.05026e+01
       C  1.69962e+01  1.57412e+01  3.01489e+01
       H  1.62722e+01  1.52434e+01  3.08082e+01
       H  1.78178e+01  1.61521e+01  3.07514e+01
       H  1.64976e+01  1.65555e+01  2.96058e+01
       H  1.73974e+01  1.50138e+01  2.94300e+01
       C  4.00211e+01  8.95957e+00  1.34704e+01
       H  3.99878e+01  9.67399e+00  1.26366e+01
       H  3.90459e+01  8.94036e+00  1.39755e+01
       H  4.07973e+01  9.26694e+00  1.41844e+01
       H  4.02541e+01  7.95759e+00  1.30849e+01
       C  1.28817e+01  3.72077e+01  8.99838e+00
       H  1.26955e+01  3.66352e+01  9.91734e+00
       H  1.39508e+01  3.71641e+01  8.74880e+00
       H  1.25851e+01  3.82535e+01  9.15273e+00
       H  1.22962e+01  3.67798e+01  8.17425e+00
       C  4.48995e+01  2.81827e+01  4.31143e+01
       H  4.50723e+01  2.75414e+01  4.39893e+01
       H  4.41584e+01  2.77106e+01  4.24550e+01
       H  4.58427e+01  2.83177e+01  4.25675e+01
       H  4.45250e+01  2.91608e+01  4.34454e+01
       C  3.56528e+01  3.81150e+01  2.06180e+01
       H  3.53707e+01  3.70554e+01  2.05506e+01
       H  3.62192e+01  3.82853e+01  2.15437e+01
       H  3.47463e+01  3.87355e+01  2.06239e+01
       H  3.62746e+01  3.83842e+01  1.97534e+01
       C  2.76644e+01  2.85645e+01  2.87272e+01
       H  2.78122e+01  2.81199e+01  2.97208e+01
       H  2.75879e+01  2.77664e+01  2.79762e+01
       H  2.85178e+01  2.92132e+01  2.84871e+01
       H  2.67410e+01  2.91592e+01  2.87266e+01
       C  1.56148e+01  3.99714e+00  4.54802e+01
       H  1.63292e+01  3.34947e+00  4.60064e+01
       H  1.46632e+01  3.46390e+00  4.53516e+01
       H  1.60204e+01  4.26508e+00  4.44951e+01
       H  1.54465e+01  4.90993e+00  4.60675e+01
       C  3.25324e+01  8.13955e+00  7.26465e-01
       H  3.33760e+01  8.48786e+00  1.15313e-01
       H  3.20363e+01  9.00231e+00  1.19133e+00
       H  3.29010e+01  7.46356e+00  1.50982e+00
       H  3.18155e+01  7.60462e+00  8.89689e-02
       C  1.74230e+01  2.24716e+01  3.01040e+01
       H  1.63873e+01  2.28212e+01  3.02129e+01
       H  1.74530e+01  2.13785e+01  3.02094e+01
       H  1.80483e+01  2.29317e+01  3.08813e+01
       H  1.78033e+01  2.27547e+01  2.91131e+01
       C  8.79881e+00  4.22552e+01  4.78331e+00
       H  9.47622e+00  4.13972e+01  4.67718e+00
       H  7.76726e+00  4.18952e+01  4.89719e+00
       H  8.86834e+00  4.28900e+01  3.88950e+00
       H  9.08296e+00  4.28384e+01  5.67002e+00
       C  9.07712e+00  3.24275e+01  1.31668e+01
       H  8.64702e+00  3.30373e+01  1.23606e+01
       H  8.27213e+00  3.18992e+01  1.36958e+01
       H  9.61355e+00  3.30773e+01  1.38715e+01
       H  9.77603e+00  3.16959e+01  1.27389e+01
       C  3.07662e+01  1.22350e+01  1.94591e+01
       H  3.12020e+01  1.18054e+01  1.85468e+01
       H  3.12164e+01  1.17573e+01  2.03399e+01
       H  2.96813e+01  1.20623e+01  1.94633e+01
       H  3.09653e+01  1.33149e+01  1.94866e+01
       C  2.13245e+01  3.64747e+01  3.67453e+01
       H  2.04032e+01  3.59402e+01  3.64764e+01
       H  2.12732e+01  3.67867e+01  3.77973e+01
       H  2.14337e+01  3.73610e+01  3.61055e+01
       H  2.21880e+01  3.58111e+01  3.66018e+01
       C  4.08272e+01  2.30624e+01  8.55726e+00
       H  4.15869e+01  2.29993e+01  7.76628e+00
       H  4.11648e+01  2.37613e+01  9.33468e+00
       H  4.06753e+01  2.20683e+01  8.99934e+00
       H  3.98813e+01  2.34208e+01  8.12876e+00
       C  2.61703e+00  6.69485e+00  4.20250e+01
       H  2.68262e+00  7.39820e+00  4.28663e+01
       H  3.54578e+00  6.73720e+00  4.14399e+01
       H  1.76760e+00  6.96789e+00  4.13843e+01
       H  2.47299e+00  5.67619e+00  4.24100e+01
       C  6.13927e+00  1.83740e+01  3.92755e+01
       H  6.09989e+00  1.82789e+01  4.03692e+01
       H  6.31601e+00  1.94239e+01  3.90047e+01
       H  5.18557e+00  1.80403e+01  3.88443e+01
       H  6.95536e+00  1.77521e+01  3.88829e+01
       C  2.48185e+01  1.88124e+01  2.16747e+01
       H  2.52728e+01  1.97008e+01  2.12153e+01
       H  2.41184e+01  1.91245e+01  2.24617e+01
       H  2.56058e+01  1.81842e+01  2.21134e+01
       H  2.42778e+01  1.82399e+01  2.09088e+01
       C  2.00723e+01  3.39685e+01  1.30631e+01
       H  1.93627e+01  3.47577e+01  1.33469e+01
       H  1.95792e+01  3.29897e+01  1.31368e+01
       H  2.09378e+01  3.39941e+01  1.37390e+01
       H  2.04092e+01  3.41321e+01  1.20304e+01
       C  2.12119e+01  9.04906e+00  1.45583e+01
       H  2.07639e+01  8.11980e+00  1.49362e+01
       H  2.17231e+01  8.84868e+00  1.36070e+01
       H  2.19367e+01  9.42999e+00  1.52906e+01
       H  2.04236e+01  9.79760e+00  1.44007e+01
       C  3.42857e+01  1.23554e+01  8.13605e-01
       H  3.44553e+01  1.29225e+01  1.73894e+00
       H  3.50619e+01  1.26123e+01  7.99781e-02
       H  3.32979e+01  1.26079e+01  4.04614e-01
       H  3.43276e+01  1.12793e+01  1.02998e+00
       C  7.32036e+00  9.58757e+00  2.68640e+01
       H  7.41967e+00  1.06811e+01  2.68394e+01
       H  8.31328e+00  9.13247e+00  2.69831e+01
       H  6.86777e+00  9.23974e+00  2.59256e+01
       H  6.68086e+00  9.29690e+00  2.77087e+01
       C  2.96430e+01  2.78742e+01  4.39643e+01
       H  2.86879e+01  2.79396e+01  4.34256e+01
       H  2.94582e+01  2.79314e+01  4.50456e+01
       H  3.02930e+01  2.87057e+01  4.36595e+01
       H  3.01330e+01  2.69203e+01  4.37265e+01
       C  1.29264e+01  8.23554e+00  2.68338e+01
       H  1.36601e+01  8.14153e+00  2.76459e+01
       H  1.31352e+01  7.48134e+00  2.60628e+01
       H  1.29947e+01  9.23924e+00  2.63928e+01
       H  1.19155e+01  8.07900e+00  2.72344e+01
       C  1.43040e+01  1.76103e+01  1.70611e+01
       H  1.39650e+01  1.85138e+01  1.75859e+01
       H  1.49642e+01  1.78945e+01  1.62304e+01
       H  1.34339e+01  1.70669e+01  1.66680e+01
       H  1.48526e+01  1.69653e+01  1.77609e+01
       C  2.74544e+01  5.60828e+00  4.03612e+00
       H  2.65652e+01  5.03020e+00  3.74967e+00
       H  2.72861e+01  6.67141e+00  3.81645e+00
       H  2.83232e+01  5.24987e+00  3.46735e+00
       H  2.76430e+01  5.48182e+00  5.11091e+00
       C  4.46449e+01  8.61643e+00  5.42454e+00
       H  4.39439e+01  9.31919e+00  5.89505e+00
       H  4.56732e+01  8.97833e+00  5.56033e+00
       H  4.44217e+01  8.53973e+00  4.35165e+00
       H  4.45401e+01  7.62794e+00  5.89168e+00
       C  1.59378e+01  3.55117e+01  1.59166e+01
       H  1.61727e+01  3.58580e+01  1.49009e+01
       H  1.67869e+01  3.49391e+01  1.63140e+01
       H  1.50458e+01  3.48714e+01  1.58882e+01
       H  1.57457e+01  3.63785e+01  1.65637e+01
       C  4.11242e+01  1.70104e+01  2.70708e+01
       H  4.04322e+01  1.64080e+01  2.64667e+01
       H  4.21527e+01  1.66614e+01  2.69064e+01
       H  4.08682e+01  1.69064e+01  2.81340e+01
       H  4.10441e+01  1.80656e+01  2.67761e+01
       C  3.39866e+01  1.27586e+01  1.56181e+01
       H  3.42556e+01  1.25783e+01  1.45683e+01
       H  3.32694e+01  1.19950e+01  1.59486e+01
       H  3.35319e+01  1.37541e+01  1.57135e+01
       H  3.48897e+01  1.27070e+01  1.62414e+01
       C  3.10460e+01  2.97409e+01  3.18428e+01
       H  3.05984e+01  3.05542e+01  3.24303e+01
       H  3.06878e+01  2.87746e+01  3.22231e+01
       H  3.21400e+01  2.97866e+01  3.19297e+01
       H  3.07577e+01  2.98486e+01  3.07884e+01
       C  2.54948e+01  4.45379e+01  3.83977e+01
       H  2.60673e+01  4.49555e+01  3.75584e+01
       H  2.56474e+01  4.51598e+01  3.92903e+01
       H  2.58374e+01  4.35143e+01  3.86013e+01
       H  2.44268e+01  4.45224e+01  3.81412e+01
       C  4.11802e+00  1.42772e+01  1.86356e+01
       H  4.39190e+00  1.52431e+01  1.90818e+01
       H  4.63044e+00  1.34672e+01  1.91719e+01
       H  4.41827e+00  1.42645e+01  1.75788e+01
       H  3.03111e+00  1.41354e+01  1.87091e+01
       C  1.78198e+01  3.70743e+01  4.14865e+01
       H  1.78635e+01  3.81448e+01  4.17289e+01
       H  1.82175e+01  3.69113e+01  4.04756e+01
       H  1.67771e+01  3.67313e+01  4.15297e+01
       H  1.84212e+01  3.65096e+01  4.22120e+01
       C  3.92447e+01  3.60675e+01  3.91095e+01
       H  3.83125e+01  3.54884e+01  3.90604e+01
       H  3.93286e+01  3.65439e+01  4.00959e+01
       H  3.92361e+01  3.68409e+01  3.83293e+01
       H  4.01007e+01  3.53974e+01  3.89520e+01
       C  3.77364e+01  3.28140e+01  1.84653e+01
       H  3.72419e+01  3.33561e+01  1.92829e+01
       H  3.86104e+01  3.33847e+01  1.81230e+01
       H  3.70325e+01  3.26870e+01  1.76315e+01
       H  3.80609e+01  3.18277e+01  1.88241e+01
       C  2.38656e+01  2.70163e+01  4.36610e+01
       H  2.49144e+01  2.68493e+01  4.33801e+01
       H  2.35270e+01  2.79791e+01  4.32554e+01
       H  2.37771e+01  2.70290e+01  4.47558e+01
       H  2.32437e+01  2.62081e+01  4.32525e+01
       C  2.45408e+00  1.75751e+01  2.69563e+01
       H  2.22865e+00  1.66967e+01  2.75763e+01
       H  1.51983e+00  1.79864e+01  2.65503e+01
       H  3.11408e+00  1.72799e+01  2.61293e+01
       H  2.95377e+00  1.83376e+01  2.75692e+01
       C  3.65247e+01  3.45445e+01  3.29907e+01
       H  3.71705e+01  3.50992e+01  3.22963e+01
       H  3.71299e+01  3.41508e+01  3.38186e+01
       H  3.60458e+01  3.37113e+01  3.24586e+01
       H  3.57526e+01  3.52168e+01  3.33887e+01
       C  5.43470e+00  1.76692e+01  3.56650e+01
       H  5.45508e+00  1.77989e+01  3.45744e+01
       H  4.67031e+00  1.83287e+01  3.60980e+01
       H  6.41788e+00  1.79254e+01  3.60828e+01
       H  5.19570e+00  1.66244e+01  3.59053e+01
       C  1.01473e+01  4.48386e+00  1.79635e+01
       H  9.29162e+00  3.84111e+00  1.82111e+01
       H  1.01861e+01  5.32825e+00  1.86652e+01
       H  1.00356e+01  4.86393e+00  1.69390e+01
       H  1.10763e+01  3.90236e+00  1.80393e+01
       C  3.63068e+01  1.29117e+01  3.65021e+01
       H  3.62075e+01  1.39747e+01  3.62433e+01
       H  3.72212e+01  1.27626e+01  3.70918e+01
       H  3.63632e+01  1.23146e+01  3.55819e+01
       H  3.54355e+01  1.25954e+01  3.70917e+01
       C  2.57103e+01  2.68782e+01  3.21451e+01
       H  2.52930e+01  2.59439e+01  3.25456e+01
       H  2.62017e+01  2.74362e+01  3.29536e+01
       H  2.49010e+01  2.74863e+01  3.17184e+01
       H  2.64440e+01  2.66440e+01  3.13623e+01
       C  9.31175e+00  2.77499e+01  2.11076e+01
       H  9.24216e+00  2.87795e+01  2.07272e+01
       H  9.09848e+00  2.70424e+01  2.02944e+01
       H  8.58854e+00  2.76068e+01  2.19201e+01
       H  1.03262e+01  2.75711e+01  2.14863e+01
       C  1.24605e+01  1.99203e+01  5.31051e+00
       H  1.31610e+01  2.01434e+01  4.49431e+00
       H  1.25425e+01  2.06950e+01  6.08505e+00
       H  1.27042e+01  1.89412e+01  5.74504e+00
       H  1.14348e+01  1.99020e+01  4.91807e+00
       C  7.39321e+00  1.10509e+01  1.82343e+01
       H  8.20677e+00  1.08729e+01  1.75178e+01
       H  7.78654e+00  1.15851e+01  1.91098e+01
       H  6.96892e+00  1.00890e+01  1.85527e+01
       H  6.61075e+00  1.16563e+01  1.77569e+01
       C  3.04583e+01  2.74653e+01  1.02234e+01
       H  2.93722e+01  2.73008e+01  1.02114e+01
       H  3.09164e+01  2.68298e+01  1.09935e+01
       H  3.06663e+01  2.85203e+01  1.04478e+01
       H  3.08783e+01  2.72099e+01  9.24102e+00
       C  4.42531e+01  9.88110e+00  2.07422e+01
       H  4.49263e+01  9.34932e+00  2.14285e+01
       H  4.46604e+01  9.83730e+00  1.97230e+01
       H  4.41648e+01  1.09301e+01  2.10561e+01
       H  4.32618e+01  9.40836e+00  2.07610e+01
       C  1.34783e+01  3.90279e+01  2.07838e+01
       H  1.29476e+01  3.96026e+01  2.15550e+01
       H  1.37346e+01  3.96897e+01  1.99453e+01
       H  1.28333e+01  3.82147e+01  2.04246e+01
       H  1.43977e+01  3.86045e+01  2.12105e+01
       C  1.56278e+01  3.06746e+01  1.69136e+01
       H  1.53416e+01  3.16933e+01  1.66181e+01
       H  1.57611e+01  3.00566e+01  1.60154e+01
       H  1.48385e+01  3.02402e+01  1.75421e+01
       H  1.65693e+01  3.07081e+01  1.74787e+01
       C  5.10524e+00  1.34396e+01  3.67588e+01
       H  6.08835e+00  1.30392e+01  3.64763e+01
       H  4.53113e+00  1.26636e+01  3.72831e+01
       H  4.56236e+00  1.37490e+01  3.58554e+01
       H  5.23925e+00  1.43061e+01  3.74207e+01
       C  3.24221e+01  8.77989e+00  4.22324e+01
       H  3.30739e+01  8.62812e+00  4.31032e+01
       H  3.25144e+01  9.81624e+00  4.18802e+01
       H  3.13799e+01  8.58052e+00  4.25174e+01
       H  3.27188e+01  8.09209e+00  4.14291e+01
       C  2.36502e+01  2.55337e+00  2.36989e+00
       H  2.35530e+01  2.38985e+00  1.28797e+00
       H  2.47119e+01  2.52445e+00  2.65071e+00
       H  2.31071e+01  1.76540e+00  2.90923e+00
       H  2.32287e+01  3.53350e+00  2.63143e+00
       C  2.32565e+01  2.27076e+01  3.35298e+01
       H  2.23258e+01  2.32580e+01  3.37235e+01
       H  2.37752e+01  2.25206e+01  3.44799e+01
       H  2.39036e+01  2.33021e+01  3.28706e+01
       H  2.30216e+01  2.17495e+01  3.30462e+01
       C  1.99651e+01  2.51881e+01  2.67005e+01
       H  2.05706e+01  2.53417e+01  2.57969e+01
       H  1.92069e+01  2.59798e+01  2.67719e+01
       H  2.06144e+01  2.52224e+01  2.75861e+01
       H  1.94692e+01  2.42094e+01  2.66471e+01
       C  3.14586e+01  1.91113e+01  1.79039e+00
       H  3.25207e+01  1.90230e+01  2.05685e+00
       H  3.13155e+01  1.87991e+01  7.47059e-01
       H  3.11373e+01  2.01553e+01  1.90742e+00
       H  3.08610e+01  1.84679e+01  2.45049e+00
       C  3.37313e+01  2.72384e+01  3.26630e+01
       H  3.42611e+01  2.79468e+01  3.20116e+01
       H  3.43475e+01  2.63402e+01  3.28039e+01
       H  3.27760e+01  2.69583e+01  3.21985e+01
       H  3.35402e+01  2.77089e+01  3.36372e+01
       C  1.60640e+01  4.12538e+01  8.85430e+00
       H  1.59351e+01  4.02343e+01  8.46619e+00
       H  1.58404e+01  4.19790e+01  8.05999e+00
       H  1.71006e+01  4.13886e+01  9.19177e+00
       H  1.53802e+01  4.14139e+01  9.69871e+00
       C  3.52827e+01  2.83833e+01  3.84393e+01
       H  3.45423e+01  2.84616e+01  3.76317e+01
       H  3.54825e+01  2.93821e+01  3.88504e+01
       H  3.62142e+01  2.79575e+01  3.80423e+01
       H  3.48915e+01  2.77323e+01  3.92330e+01
       C  1.12208e+01  4.43767e+00  4.53782e+01
       H  1.14304e+01  5.08791e+00  4.45180e+01
       H  1.20833e+01  3.78248e+00  4.55607e+01
       H  1.03338e+01  3.82506e+00  4.51667e+01
       H  1.10356e+01  5.05533e+00  4.62675e+01
       C  3.92217e+01  3.28309e+01  1.43702e+01
       H  3.85322e+01  3.26240e+01  1.35403e+01
       H  3.94868e+01  3.18896e+01  1.48701e+01
       H  3.87367e+01  3.35040e+01  1.50903e+01
       H  4.01316e+01  3.33072e+01  1.39797e+01
       C  4.09995e+01  4.09836e+01  1.36341e+00
       H  4.10623e+01  4.07481e+01  2.92237e-01
       H  4.19510e+01  4.07302e+01  1.85047e+00
       H  4.01880e+01  4.04004e+01  1.81955e+00
       H  4.07967e+01  4.20556e+01  1.49159e+00
       C  3.72217e+01  3.16976e+01  4.00156e+01
       H  3.74423e+01  3.10231e+01  4.08542e+01
       H  3.61541e+01  3.19562e+01  4.00247e+01
       H  3.74690e+01  3.11976e+01  3.90693e+01
       H  3.78212e+01  3.26129e+01  4.01141e+01
       C  3.07180e+01  3.36003e+01  3.08514e+01
       H  3.12170e+01  3.38211e+01  3.18048e+01
       H  3.09862e+01  3.25867e+01  3.05240e+01
       H  3.10399e+01  3.43269e+01  3.00929e+01
       H  2.96295e+01  3.36663e+01  3.09837e+01
       C  6.77053e+00  4.86495e+00  1.58453e+01
       H  6.96749e+00  5.30948e+00  1.48601e+01
       H  6.93279e+00  5.61959e+00  1.66268e+01
       H  7.45110e+00  4.01829e+00  1.60077e+01
       H  5.73087e+00  4.51243e+00  1.58862e+01
       C  1.41976e+01  1.84925e+01  2.15724e+01
       H  1.41106e+01  1.73977e+01  2.15480e+01
       H  1.36708e+01  1.88820e+01  2.24543e+01
       H  1.37507e+01  1.89152e+01  2.06623e+01
       H  1.52579e+01  1.87749e+01  2.16255e+01
       C  4.15100e+01  2.66525e+00  1.19755e+00
       H  4.13593e+01  3.00457e+00  2.23139e+00
       H  4.17316e+01  3.52966e+00  5.57030e-01
       H  4.05985e+01  2.16798e+00  8.38731e-01
       H  4.23505e+01  1.95885e+00  1.16288e+00
       C  3.72964e+01  1.68098e+01  7.48838e+00
       H  3.69587e+01  1.78547e+01  7.51781e+00
       H  3.71478e+01  1.63491e+01  8.47449e+00
       H  3.83625e+01  1.67767e+01  7.22573e+00
       H  3.67165e+01  1.62586e+01  6.73557e+00
       C  3.50900e+01  3.26559e+01  1.46443e+01
       H  3.49999e+01  3.36814e+01  1.42608e+01
       H  3.61067e+01  3.24962e+01  1.50282e+01
       H  3.48886e+01  3.19430e+01  1.38331e+01
       H  3.43645e+01  3.25029e+01  1.54549e+01
       C  1.78997e+01  4.41371e+01  3.31269e+01
       H  1.89669e+01  4.38787e+01  3.30933e+01
       H  1.77530e+01  4.50010e+01  3.37894e+01
       H  1.73275e+01  4.32808e+01  3.35093e+01
       H  1.75517e+01  4.43881e+01  3.21156e+01
       C  2.19866e+01  2.28946e+01  8.95888e+00
       H  2.09419e+01  2.26405e+01  8.73339e+00
       H  2.23308e+01  2.36763e+01  8.26818e+00
       H  2.26141e+01  2.20005e+01  8.84221e+00
       H  2.20596e+01  2.32609e+01  9.99191e+00
       C  1.04963e+01  1.65626e+01  4.17620e+01
       H  1.05072e+01  1.71135e+01  4.27122e+01
       H  9.72078e+00  1.57854e+01  4.17980e+01
       H  1.14766e+01  1.60942e+01  4.15999e+01
       H  1.02812e+01  1.72566e+01  4.09380e+01
       C  3.76233e+00  4.13127e+01  3.75120e+01
       H  3.48613e+00  4.06833e+01  3.66551e+01
       H  4.55217e+00  4.08158e+01  3.80916e+01
       H  2.88226e+00  4.14684e+01  3.81506e+01
       H  4.12876e+00  4.22831e+01  3.71504e+01
       C  1.40495e+01  4.18349e+01  2.97762e+01
       H  1.38695e+01  4.17432e+01  2.86964e+01
       H  1.50116e+01  4.23372e+01  2.99458e+01
       H  1.40737e+01  4.08346e+01  3.02295e+01
       H  1.32430e+01  4.24245e+01  3.02330e+01
       C  2.29866e+01  2.23191e+01  2.49202e+01
       H  2.29897e+01  2.23248e+01  2.60187e+01
       H  2.19971e+01  2.26266e+01  2.45555e+01
       H  2.32116e+01  2.13065e+01  2.45583e+01
       H  2.37477e+01  2.30181e+01  2.45479e+01
       C  3.84545e+01  1.96099e+01  3.32594e+01
       H  3.80402e+01  1.88020e+01  3.38777e+01
       H  3.77752e+01  2.04728e+01  3.32812e+01
       H  3.85671e+01  1.92583e+01  3.22247e+01
       H  3.94356e+01  1.99067e+01  3.36544e+01
       C  3.68357e+01  2.02647e+01  3.66270e+01
       H  3.61694e+01  2.00636e+01  3.74770e+01
       H  3.76838e+01  1.95671e+01  3.66536e+01
       H  3.72085e+01  2.12960e+01  3.66903e+01
       H  3.62816e+01  2.01325e+01  3.56878e+01
       C  2.29748e+01  3.92841e+01  2.09984e+01
       H  2.29102e+01  3.96514e+01  2.20315e+01
       H  2.26845e+01  4.00860e+01  2.03061e+01
       H  2.22986e+01  3.84278e+01  2.08708e+01
       H  2.40059e+01  3.89712e+01  2.07846e+01
       C  6.10900e+00  2.94832e+01  4.03576e+01
       H  5.95650e+00  2.96209e+01  4.14368e+01
       H  7.15271e+00  2.97126e+01  4.01032e+01
       H  5.44068e+00  3.01571e+01  3.98045e+01
       H  5.88620e+00  2.84423e+01  4.00862e+01
       C  3.72319e+01  2.36418e+01  1.81049e+01
       H  3.71144e+01  2.47024e+01  1.83652e+01
       H  3.82103e+01  2.32851e+01  1.84547e+01
       H  3.71682e+01  2.35238e+01  1.70147e+01
       H  3.64357e+01  2.30560e+01  1.85844e+01
       C  2.94251e+01  1.90163e+01  1.10408e+01
       H  2.98829e+01  2.00115e+01  1.09576e+01
       H  2.83352e+01  1.91053e+01  1.09368e+01
       H  2.96651e+01  1.85833e+01  1.20214e+01
       H  2.98171e+01  1.83657e+01  1.02473e+01
       C  3.25842e+01  1.23405e+01  2.67274e+01
       H  3.30900e+01  1.19520e+01  2.58331e+01
       H  3.31448e+01  1.31991e+01  2.71213e+01
       H  3.25356e+01  1.15531e+01  2.74919e+01
       H  3.15661e+01  1.26579e+01  2.64635e+01
       C  3.22807e+01  1.72459e+01  5.81339e+00
       H  3.33262e+01  1.75159e+01  5.61186e+00
       H  3.16145e+01  1.79581e+01  5.30762e+00
       H  3.20965e+01  1.72774e+01  6.89594e+00
       H  3.20854e+01  1.62321e+01  5.43819e+00
       C  3.84705e+01  2.05387e+01  2.03885e+01
       H  3.89893e+01  2.02515e+01  1.94636e+01
       H  3.90235e+01  2.13499e+01  2.08817e+01
       H  3.84171e+01  1.96722e+01  2.10609e+01
       H  3.74537e+01  2.08806e+01  2.01483e+01
       C  3.44005e+01  2.28664e+00  2.35672e+00
       H  3.50732e+01  2.27047e+00  3.22509e+00
       H  3.47628e+01  1.57767e+00  1.59986e+00
       H  3.43783e+01  3.29851e+00  1.92969e+00
       H  3.33880e+01  1.99988e+00  2.67221e+00
       C  4.46140e+01  1.08901e+01  3.19824e+01
       H  4.38896e+01  1.03815e+01  3.13321e+01
       H  4.43124e+01  1.07658e+01  3.30321e+01
       H  4.46417e+01  1.19601e+01  3.17349e+01
       H  4.56099e+01  1.04537e+01  3.18342e+01
       C  9.59607e+00  1.77464e+01  1.58867e+01
       H  9.39280e+00  1.70486e+01  1.50630e+01
       H  1.03406e+01  1.73066e+01  1.65641e+01
       H  8.66681e+00  1.79406e+01  1.64394e+01
       H  9.98347e+00  1.86903e+01  1.54794e+01
       C  3.00648e+01  1.11594e+01  3.54605e+01
       H  3.05552e+01  1.13189e+01  3.64305e+01
       H  3.05057e+01  1.18323e+01  3.47123e+01
       H  2.89908e+01  1.13701e+01  3.55541e+01
       H  3.02076e+01  1.01169e+01  3.51454e+01
       C  2.64533e+00  2.27737e+01  1.77453e+00
       H  2.45356e+00  2.34907e+01  9.64647e-01
       H  2.35363e+00  2.17662e+01  1.44809e+00
       H  2.05944e+00  2.30560e+01  2.65991e+00
       H  3.71486e+00  2.27819e+01  2.02520e+00
       C  1.88020e+01  1.69418e+01  2.02892e+00
       H  1.89322e+01  1.58734e+01  2.24883e+00
       H  1.77560e+01  1.71345e+01  1.75426e+00
       H  1.94578e+01  1.72265e+01  1.19487e+00
       H  1.90622e+01  1.75329e+01  2.91752e+00
       C  3.04908e+01  1.04266e+01  4.50032e+01