LAMMPS data file. CGCMM style. atom_style full generated by VMD/TopoTools v1.5 on Wed Nov 30 12:14:08 GMT 2016
 1000 atoms
 800 bonds
 1200 angles
 0 dihedrals
 0 impropers
 2 atom types
 1 bond types
 1 angle types
 0 dihedral types
 0 improper types
 0.0 23.13215047606987  xlo xhi
 0.0 23.13215047606987  ylo yhi
 0.0 23.13215047606987  zlo zhi

# Pair Coeffs
#
# 1  CT
# 2  HC

# Bond Coeffs
#
# 1  CT-HC

# Angle Coeffs
#
# 1  HC-CT-HC

 Masses

 1 12.011000 # CT
 2 1.008000 # HC

 Atoms

1 1 1 -0.240000 20.966315 19.181323 1.204050 # CT
2 1 2 0.060000 21.129772 18.347449 1.883666 # HC
3 1 2 0.060000 20.351454 18.853078 0.368488 # HC
4 1 2 0.060000 21.924124 19.538493 0.831223 # HC
5 1 2 0.060000 20.459925 19.986268 1.732784 # HC
6 2 1 -0.240000 20.065668 14.241503 7.351665 # CT
7 2 2 0.060000 20.715861 14.270328 8.223651 # HC
8 2 2 0.060000 20.547594 13.673516 6.558506 # HC
9 2 2 0.060000 19.875619 15.256011 7.007246 # HC
10 2 2 0.060000 19.123610 13.766176 7.617221 # HC
11 3 1 -0.240000 4.766639 19.070275 10.410588 # CT
12 3 2 0.060000 5.269436 18.106122 10.371252 # HC
13 3 2 0.060000 4.814092 19.544257 9.432298 # HC
14 3 2 0.060000 5.257086 19.705382 11.145484 # HC
15 3 2 0.060000 3.725968 18.925372 10.693313 # HC
16 4 1 -0.240000 2.608203 12.216491 9.639492 # CT
17 4 2 0.060000 2.294219 12.654423 10.584781 # HC
18 4 2 0.060000 3.092876 11.260310 9.825967 # HC
19 4 2 0.060000 3.307271 12.886859 9.143630 # HC
20 4 2 0.060000 1.738486 12.064367 9.003585 # HC
21 5 1 -0.240000 2.054867 18.861140 5.559993 # CT
22 5 2 0.060000 1.880883 18.695616 4.498733 # HC
23 5 2 0.060000 1.807610 17.957464 6.113343 # HC
24 5 2 0.060000 1.429264 19.681206 5.906522 # HC
25 5 2 0.060000 3.101675 19.110272 5.721401 # HC
26 6 1 -0.240000 7.918952 5.965610 1.154821 # CT
27 6 2 0.060000 7.023182 6.038751 0.541479 # HC
28 6 2 0.060000 8.737247 6.490138 0.665713 # HC
29 6 2 0.060000 8.185290 4.918598 1.284433 # HC
30 6 2 0.060000 7.730122 6.414933 2.127642 # HC
31 7 1 -0.240000 22.100308 11.373880 21.296927 # CT
32 7 2 0.060000 22.189719 12.397437 21.655084 # HC
33 7 2 0.060000 22.182797 11.360725 20.212038 # HC
34 7 2 0.060000 21.134278 10.969397 21.592139 # HC
35 7 2 0.060000 22.894404 10.767950 21.728423 # HC
36 8 1 -0.240000 5.448682 20.936074 9.434750 # CT
37 8 2 0.060000 4.488797 20.959350 9.946628 # HC
38 8 2 0.060000 5.777828 21.953724 9.234713 # HC
39 8 2 0.060000 5.345745 20.396898 8.495248 # HC
40 8 2 0.060000 6.182360 20.434339 10.062369 # HC
41 9 1 -0.240000 8.669747 20.136950 16.566956 # CT
42 9 2 0.060000 9.462378 20.854702 16.768224 # HC
43 9 2 0.060000 9.067545 19.312921 15.978147 # HC
44 9 2 0.060000 7.870170 20.625264 16.013607 # HC
45 9 2 0.060000 8.278884 19.754907 17.507805 # HC
46 10 1 -0.240000 20.643468 10.096242 20.222248 # CT
47 10 2 0.060000 20.184814 11.065649 20.406171 # HC
48 10 2 0.060000 19.875607 9.325305 20.225075 # HC
49 10 2 0.060000 21.371752 9.885621 21.002768 # HC
50 10 2 0.060000 21.141697 10.108365 19.255011 # HC
51 11 1 -0.240000 16.549729 5.354942 1.603596 # CT
52 11 2 0.060000 16.366359 5.492252 0.539894 # HC
53 11 2 0.060000 15.878758 4.591311 1.991705 # HC
54 11 2 0.060000 16.372796 6.292797 2.126180 # HC
55 11 2 0.060000 17.580971 5.043419 1.756633 # HC
56 12 1 -0.240000 22.126086 16.520503 4.196386 # CT
57 12 2 0.060000 21.300622 17.218880 4.074656 # HC
58 12 2 0.060000 22.041618 16.023658 5.160737 # HC
59 12 2 0.060000 23.068954 17.061497 4.148472 # HC
60 12 2 0.060000 22.093180 15.777983 3.401710 # HC
61 13 1 -0.240000 18.829595 9.301498 3.892474 # CT
62 13 2 0.060000 18.077394 10.004284 4.244933 # HC
63 13 2 0.060000 19.368275 9.737268 3.053492 # HC
64 13 2 0.060000 18.344822 8.381048 3.573513 # HC
65 13 2 0.060000 19.527885 9.083378 4.697920 # HC
66 14 1 -0.240000 19.415631 19.632703 10.220132 # CT
67 14 2 0.060000 20.048657 20.415070 9.806465 # HC
68 14 2 0.060000 18.484841 19.584509 9.658644 # HC
69 14 2 0.060000 19.198990 19.854975 11.263028 # HC
70 14 2 0.060000 19.930001 18.676269 10.152411 # HC
71 15 1 -0.240000 6.941816 9.357720 6.877188 # CT
72 15 2 0.060000 7.111741 8.617776 6.097733 # HC
73 15 2 0.060000 7.790836 9.369275 7.557624 # HC
74 15 2 0.060000 6.038789 9.103168 7.428291 # HC
75 15 2 0.060000 6.825894 10.340646 6.425142 # HC
76 16 1 -0.240000 11.122171 14.964945 4.165700 # CT
77 16 2 0.060000 10.418343 15.549191 4.754958 # HC
78 16 2 0.060000 11.891800 15.621222 3.764533 # HC
79 16 2 0.060000 10.594938 14.480921 3.346117 # HC
80 16 2 0.060000 11.583605 14.208455 4.797149 # HC
81 17 1 -0.240000 20.489136 2.733720 22.223989 # CT
82 17 2 0.060000 20.582797 1.677650 21.979274 # HC
83 17 2 0.060000 19.612210 2.884521 22.850266 # HC
84 17 2 0.060000 20.383711 3.310473 21.307359 # HC
85 17 2 0.060000 21.377792 3.062255 22.759042 # HC
86 18 1 -0.240000 9.489066 16.831677 15.067175 # CT
87 18 2 0.060000 10.490999 17.153534 14.790624 # HC
88 18 2 0.060000 9.477711 15.751247 15.195645 # HC
89 18 2 0.060000 8.788870 17.110997 14.282526 # HC
90 18 2 0.060000 9.198665 17.310905 15.999878 # HC
91 19 1 -0.240000 22.750143 11.845525 17.094839 # CT
92 19 2 0.060000 23.128537 11.104024 16.394170 # HC
93 19 2 0.060000 23.122783 12.829602 16.817904 # HC
94 19 2 0.060000 23.086869 11.599843 18.099938 # HC
95 19 2 0.060000 21.662410 11.848649 17.067366 # HC
96 20 1 -0.240000 0.876393 19.907977 10.209840 # CT
97 20 2 0.060000 1.005150 19.516266 11.216779 # HC
98 20 2 0.060000 0.705309 19.084531 9.519456 # HC
99 20 2 0.060000 1.772744 20.449180 9.913825 # HC
100 20 2 0.060000 0.022400 20.581920 10.189271 # HC
101 21 1 -0.240000 3.176324 5.047888 17.768670 # CT
102 21 2 0.060000 4.044011 5.220872 18.402023 # HC
103 21 2 0.060000 3.376129 4.213238 17.099791 # HC
104 21 2 0.060000 2.971235 5.941367 17.182492 # HC
105 21 2 0.060000 2.313925 4.816082 18.390331 # HC
106 22 1 -0.240000 17.120239 22.288048 8.837219 # CT
107 22 2 0.060000 17.059218 21.532739 8.056370 # HC
108 22 2 0.060000 16.797460 21.858465 9.783387 # HC
109 22 2 0.060000 16.476343 23.127049 8.581394 # HC
110 22 2 0.060000 18.147897 22.633954 8.927743 # HC
111 23 1 -0.240000 12.809198 22.559970 10.568065 # CT
112 23 2 0.060000 13.077397 23.124418 11.458800 # HC
113 23 2 0.060000 13.690924 22.425294 9.944860 # HC
114 23 2 0.060000 12.049749 23.103221 10.009418 # HC
115 23 2 0.060000 12.418725 21.586969 10.859142 # HC
116 24 1 -0.240000 14.709328 13.842095 9.639820 # CT
117 24 2 0.060000 15.297545 14.083879 8.756937 # HC
118 24 2 0.060000 14.202994 12.890867 9.488978 # HC
119 24 2 0.060000 13.970915 14.623228 9.808780 # HC
120 24 2 0.060000 15.365816 13.770404 10.504581 # HC
121 25 1 -0.240000 10.234484 8.089285 14.389103 # CT
122 25 2 0.060000 10.402268 8.839948 13.619495 # HC
123 25 2 0.060000 9.419901 8.408751 15.035909 # HC
124 25 2 0.060000 11.140008 7.966820 14.979865 # HC
125 25 2 0.060000 9.975769 7.141633 13.921182 # HC
126 26 1 -0.240000 11.173408 6.116881 7.555107 # CT
127 26 2 0.060000 11.099335 6.955897 6.866263 # HC
128 26 2 0.060000 10.310073 6.114025 8.217380 # HC
129 26 2 0.060000 12.082795 6.211183 8.145100 # HC
130 26 2 0.060000 11.201434 5.186428 6.991725 # HC
131 27 1 -0.240000 12.607630 4.560228 5.839972 # CT
132 27 2 0.060000 13.322277 3.908325 5.341732 # HC
133 27 2 0.060000 12.637017 4.378231 6.912341 # HC
134 27 2 0.060000 11.607024 4.355554 5.464650 # HC
135 27 2 0.060000 12.864168 5.598784 5.641183 # HC
136 28 1 -0.240000 17.751243 15.401501 16.172545 # CT
137 28 2 0.060000 18.310676 15.934107 16.938905 # HC
138 28 2 0.060000 18.433784 14.794640 15.581089 # HC
139 28 2 0.060000 17.249703 16.118300 15.525531 # HC
140 28 2 0.060000 17.010818 14.758968 16.644615 # HC
141 29 1 -0.240000 14.004406 19.945195 12.847526 # CT
142 29 2 0.060000 14.190540 20.063647 11.782038 # HC
143 29 2 0.060000 12.931623 19.929900 13.028812 # HC
144 29 2 0.060000 14.451836 20.776530 13.388506 # HC
145 29 2 0.060000 14.443608 19.010736 13.190769 # HC
146 30 1 -0.240000 11.026550 11.600472 12.800400 # CT
147 30 2 0.060000 11.261895 10.572745 12.531453 # HC
148 30 2 0.060000 10.009261 11.832319 12.491642 # HC
149 30 2 0.060000 11.719698 12.274014 12.300542 # HC
150 30 2 0.060000 11.115340 11.722837 13.877930 # HC
151 31 1 -0.240000 11.457162 20.390678 6.763357 # CT
152 31 2 0.060000 11.987174 19.448500 6.887168 # HC
153 31 2 0.060000 11.967834 21.170568 7.324559 # HC
154 31 2 0.060000 10.439127 20.285416 7.132809 # HC
155 31 2 0.060000 11.434494 20.658245 5.708927 # HC
156 32 1 -0.240000 8.953556 21.979972 2.987885 # CT
157 32 2 0.060000 8.248039 22.490035 2.335181 # HC
158 32 2 0.060000 8.452277 21.692817 3.909961 # HC
159 32 2 0.060000 9.782105 22.646709 3.217966 # HC
160 32 2 0.060000 9.331811 21.090346 2.488469 # HC
161 33 1 -0.240000 15.183061 7.263669 10.149114 # CT
162 33 2 0.060000 16.214744 7.572986 9.994536 # HC
163 33 2 0.060000 14.887036 7.486421 11.172204 # HC
164 33 2 0.060000 15.094509 6.193957 9.970663 # HC
165 33 2 0.060000 14.535947 7.801281 9.459081 # HC
166 34 1 -0.240000 10.716692 3.750036 3.471548 # CT
167 34 2 0.060000 9.781547 4.031257 2.991591 # HC
168 34 2 0.060000 10.535218 3.538239 4.523295 # HC
169 34 2 0.060000 11.429506 4.567465 3.383930 # HC
170 34 2 0.060000 11.120514 2.863208 2.987407 # HC
171 35 1 -0.240000 13.699065 15.240961 7.728753 # CT
172 35 2 0.060000 13.417667 14.268632 8.127918 # HC
173 35 2 0.060000 14.255757 15.794909 8.481878 # HC
174 35 2 0.060000 12.802591 15.795703 7.459373 # HC
175 35 2 0.060000 14.320228 15.104635 6.845860 # HC
176 36 1 -0.240000 17.186043 15.021812 2.782581 # CT
177 36 2 0.060000 17.004400 14.222240 2.067296 # HC
178 36 2 0.060000 17.985714 14.728143 3.459520 # HC
179 36 2 0.060000 16.279049 15.211035 3.353129 # HC
180 36 2 0.060000 17.475001 15.925821 2.250417 # HC
181 37 1 -0.240000 11.143107 20.836473 9.120835 # CT
182 37 2 0.060000 10.062726 20.900359 9.008414 # HC
183 37 2 0.060000 11.570600 21.836646 9.091412 # HC
184 37 2 0.060000 11.557555 20.240906 8.309970 # HC
185 37 2 0.060000 11.381569 20.367993 10.073510 # HC
186 38 1 -0.240000 20.009748 2.330810 10.291435 # CT
187 38 2 0.060000 20.401592 1.440104 9.804565 # HC
188 38 2 0.060000 19.005833 2.533193 9.923798 # HC
189 38 2 0.060000 20.654825 3.178662 10.070092 # HC
190 38 2 0.060000 19.976737 2.171316 11.367260 # HC
191 39 1 -0.240000 7.921486 17.597150 17.426887 # CT
192 39 2 0.060000 8.394428 18.574758 17.359442 # HC
193 39 2 0.060000 6.977278 17.687033 17.960135 # HC
194 39 2 0.060000 8.576851 16.913361 17.962517 # HC
195 39 2 0.060000 7.737383 17.213429 16.425491 # HC
196 40 1 -0.240000 18.446883 12.045825 2.541218 # CT
197 40 2 0.060000 17.361220 12.008329 2.479007 # HC
198 40 2 0.060000 18.801214 11.243390 3.185043 # HC
199 40 2 0.060000 18.753608 13.004566 2.954384 # HC
200 40 2 0.060000 18.871507 11.927023 1.546478 # HC
201 41 1 -0.240000 16.414853 20.497844 9.078467 # CT
202 41 2 0.060000 17.474095 20.745009 9.107740 # HC
203 41 2 0.060000 15.859891 21.207145 9.689098 # HC
204 41 2 0.060000 16.266303 19.491882 9.465691 # HC
205 41 2 0.060000 16.059104 20.547328 8.051373 # HC
206 42 1 -0.240000 6.050065 2.639625 0.628452 # CT
207 42 2 0.060000 5.209769 2.345503 0.002884 # HC
208 42 2 0.060000 6.269148 1.844925 1.338676 # HC
209 42 2 0.060000 5.798729 3.549947 1.168927 # HC
210 42 2 0.060000 6.922606 2.818128 0.003364 # HC
211 43 1 -0.240000 2.264995 2.089730 11.212065 # CT
212 43 2 0.060000 1.293237 1.601278 11.179787 # HC
213 43 2 0.060000 2.436311 2.490992 12.208861 # HC
214 43 2 0.060000 2.288003 2.899897 10.486069 # HC
215 43 2 0.060000 3.042428 1.366795 10.973549 # HC
216 44 1 -0.240000 6.520616 7.617206 18.663945 # CT
217 44 2 0.060000 5.744413 7.777570 19.409421 # HC
218 44 2 0.060000 6.520935 8.444328 17.956957 # HC
219 44 2 0.060000 6.327556 6.686889 18.133656 # HC
220 44 2 0.060000 7.489547 7.560033 19.155708 # HC
221 45 1 -0.240000 6.102040 11.304267 4.189022 # CT
222 45 2 0.060000 6.284380 11.952381 3.334246 # HC
223 45 2 0.060000 5.541705 11.850307 4.945215 # HC
224 45 2 0.060000 7.052601 10.978667 4.606619 # HC
225 45 2 0.060000 5.529492 10.435723 3.870043 # HC
226 46 1 -0.240000 12.357049 2.827454 13.672329 # CT
227 46 2 0.060000 12.159474 2.206559 12.800896 # HC
228 46 2 0.060000 13.162874 2.387260 14.256141 # HC
229 46 2 0.060000 11.459108 2.890884 14.283598 # HC
230 46 2 0.060000 12.646730 3.825096 13.348719 # HC
231 47 1 -0.240000 13.616334 5.466127 3.817628 # CT
232 47 2 0.060000 14.185310 5.024844 3.001860 # HC
233 47 2 0.060000 14.141459 5.302088 4.756402 # HC
234 47 2 0.060000 12.633057 5.002695 3.866290 # HC
235 47 2 0.060000 13.505493 6.534856 3.645988 # HC
236 48 1 -0.240000 0.968880 7.065633 8.929474 # CT
237 48 2 0.060000 1.332433 7.048172 7.904064 # HC
238 48 2 0.060000 1.796914 7.272519 9.604396 # HC
239 48 2 0.060000 0.532567 6.099830 9.176101 # HC
240 48 2 0.060000 0.213619 7.841982 9.033361 # HC
241 49 1 -0.240000 17.437355 13.275298 14.672030 # CT
242 49 2 0.060000 17.455992 13.857250 13.752831 # HC
243 49 2 0.060000 18.304747 13.527520 15.278642 # HC
244 49 2 0.060000 17.459858 12.214622 14.430308 # HC
245 49 2 0.060000 16.528854 13.501771 15.226344 # HC
246 50 1 -0.240000 21.618325 4.875428 6.502842 # CT
247 50 2 0.060000 22.398552 4.856346 5.744671 # HC
248 50 2 0.060000 21.760173 5.740390 7.147576 # HC
249 50 2 0.060000 21.669453 3.966523 7.098867 # HC
250 50 2 0.060000 20.645132 4.938450 6.020293 # HC
251 51 1 -0.240000 7.287119 15.471835 1.638247 # CT
252 51 2 0.060000 6.222067 15.352154 1.450416 # HC
253 51 2 0.060000 7.770166 15.868509 0.747585 # HC
254 51 2 0.060000 7.722275 14.506115 1.887235 # HC
255 51 2 0.060000 7.433996 16.160538 2.467731 # HC
256 52 1 -0.240000 9.261447 18.768324 8.411818 # CT
257 52 2 0.060000 8.720705 17.824700 8.378460 # HC
258 52 2 0.060000 10.025988 18.721114 9.184611 # HC
259 52 2 0.060000 8.567897 19.576045 8.636640 # HC
260 52 2 0.060000 9.731194 18.951460 7.447594 # HC
261 53 1 -0.240000 18.840200 4.806846 21.736335 # CT
262 53 2 0.060000 18.824959 5.023853 22.802458 # HC
263 53 2 0.060000 19.109450 3.763899 21.582301 # HC
264 53 2 0.060000 19.571589 5.446406 21.246434 # HC
265 53 2 0.060000 17.854838 4.993218 21.314132 # HC
266 54 1 -0.240000 8.992934 1.114529 20.522924 # CT
267 54 2 0.060000 8.387130 1.535758 19.723231 # HC
268 54 2 0.060000 8.370704 0.485930 21.156686 # HC
269 54 2 0.060000 9.419321 1.919835 21.117606 # HC
270 54 2 0.060000 9.794572 0.516607 20.094212 # HC
271 55 1 -0.240000 21.072204 15.171538 18.446782 # CT
272 55 2 0.060000 21.154111 14.256199 19.029353 # HC
273 55 2 0.060000 21.468874 16.004938 19.023027 # HC
274 55 2 0.060000 20.026671 15.358882 18.210703 # HC
275 55 2 0.060000 21.639133 15.066161 17.524061 # HC
276 56 1 -0.240000 22.465618 1.691207 12.013810 # CT
277 56 2 0.060000 22.721806 2.243848 11.112202 # HC
278 56 2 0.060000 22.574413 0.624517 11.828613 # HC
279 56 2 0.060000 21.436198 1.907906 12.291851 # HC
280 56 2 0.060000 23.130020 1.988533 12.822571 # HC
281 57 1 -0.240000 7.541195 1.870777 3.639859 # CT
282 57 2 0.060000 7.364660 2.112338 2.593711 # HC
283 57 2 0.060000 7.819236 0.822510 3.728131 # HC
284 57 2 0.060000 6.634575 2.055006 4.212633 # HC
285 57 2 0.060000 8.346283 2.493227 4.024979 # HC
286 58 1 -0.240000 5.792032 5.320527 2.475094 # CT
287 58 2 0.060000 6.714032 5.887137 2.361907 # HC
288 58 2 0.060000 5.125032 5.845388 3.155971 # HC
289 58 2 0.060000 6.018866 4.335232 2.877225 # HC
290 58 2 0.060000 5.310191 5.214337 1.505310 # HC
291 59 1 -0.240000 18.625270 21.856725 6.859807 # CT
292 59 2 0.060000 19.320849 22.634259 7.168922 # HC
293 59 2 0.060000 17.898814 22.274874 6.165996 # HC
294 59 2 0.060000 18.108449 21.464270 7.733217 # HC
295 59 2 0.060000 19.172928 21.053500 6.371106 # HC
296 60 1 -0.240000 19.306969 7.724865 2.046852 # CT
297 60 2 0.060000 18.520084 8.468429 2.155784 # HC
298 60 2 0.060000 19.334792 7.374412 1.017109 # HC
299 60 2 0.060000 19.107462 6.885787 2.710265 # HC
300 60 2 0.060000 20.265524 8.170791 2.304242 # HC
301 61 1 -0.240000 4.119644 4.463278 14.059213 # CT
302 61 2 0.060000 4.354253 3.857939 14.932405 # HC
303 61 2 0.060000 4.589694 5.439645 14.157823 # HC
304 61 2 0.060000 3.041242 4.586048 13.982102 # HC
305 61 2 0.060000 4.493364 3.969516 13.164529 # HC
306 62 1 -0.240000 3.978700 19.289797 4.311736 # CT
307 62 2 0.060000 4.160035 19.623633 5.331349 # HC
308 62 2 0.060000 4.280342 20.069815 3.615642 # HC
309 62 2 0.060000 2.919246 19.078141 4.182394 # HC
310 62 2 0.060000 4.555146 18.387620 4.117534 # HC
311 63 1 -0.240000 2.245814 3.994811 21.742797 # CT
312 63 2 0.060000 2.628893 3.977040 22.761068 # HC
313 63 2 0.060000 2.309442 2.996843 21.313874 # HC
314 63 2 0.060000 2.837346 4.685014 21.144733 # HC
315 63 2 0.060000 1.207602 4.320338 21.751480 # HC
316 64 1 -0.240000 6.464680 2.403607 20.634505 # CT
317 64 2 0.060000 6.863769 2.698832 19.666253 # HC
318 64 2 0.060000 5.651677 3.071937 20.910773 # HC
319 64 2 0.060000 7.251593 2.460629 21.383830 # HC
320 64 2 0.060000 6.091687 1.383059 20.577197 # HC
321 65 1 -0.240000 4.151782 11.359481 2.938377 # CT
322 65 2 0.060000 4.304354 12.384684 3.269470 # HC
323 65 2 0.060000 3.429614 11.344817 2.124608 # HC
324 65 2 0.060000 3.776413 10.762721 3.767198 # HC
325 65 2 0.060000 5.096710 10.945685 2.592237 # HC
326 66 1 -0.240000 21.930163 21.632719 0.966143 # CT
327 66 2 0.060000 21.307662 21.025064 1.619741 # HC
328 66 2 0.060000 21.302572 22.140075 0.236293 # HC
329 66 2 0.060000 22.644257 20.994781 0.449350 # HC
330 66 2 0.060000 22.466163 22.370944 1.559149 # HC
331 67 1 -0.240000 1.461967 13.325299 17.932744 # CT
332 67 2 0.060000 1.185517 12.517831 18.607660 # HC
333 67 2 0.060000 0.561913 13.796316 17.542861 # HC
334 67 2 0.060000 2.047755 12.924254 17.108133 # HC
335 67 2 0.060000 2.052671 14.062792 18.472281 # HC
336 68 1 -0.240000 20.748487 12.860070 17.849452 # CT
337 68 2 0.060000 20.221186 12.982110 18.793381 # HC
338 68 2 0.060000 20.315386 13.523510 17.103642 # HC
339 68 2 0.060000 20.657800 11.828942 17.514010 # HC
340 68 2 0.060000 21.799555 13.105701 17.986743 # HC
341 69 1 -0.240000 21.812518 16.181466 10.845480 # CT
342 69 2 0.060000 20.874720 16.483657 10.383791 # HC
343 69 2 0.060000 21.625647 15.855951 11.866794 # HC
344 69 2 0.060000 22.500882 17.024116 10.853598 # HC
345 69 2 0.060000 22.248837 15.362162 10.277770 # HC
346 70 1 -0.240000 5.966791 11.170189 11.237437 # CT
347 70 2 0.060000 5.295131 11.409298 10.415463 # HC
348 70 2 0.060000 6.046504 10.089693 11.338114 # HC
349 70 2 0.060000 5.575036 11.592538 12.160540 # HC
350 70 2 0.060000 6.950477 11.589209 11.035663 # HC
351 71 1 -0.240000 16.746498 11.702757 3.552127 # CT
352 71 2 0.060000 16.083948 12.087866 2.779690 # HC
353 71 2 0.060000 16.166564 11.136815 4.278316 # HC
354 71 2 0.060000 17.242381 12.532655 4.051466 # HC
355 71 2 0.060000 17.493093 11.053705 3.099077 # HC
356 72 1 -0.240000 22.532455 8.509896 1.617150 # CT
357 72 2 0.060000 22.208842 9.073776 2.489649 # HC
358 72 2 0.060000 21.660877 8.156356 1.070044 # HC
359 72 2 0.060000 23.130007 7.658540 1.936674 # HC
360 72 2 0.060000 23.130083 9.150869 0.972231 # HC
361 73 1 -0.240000 17.546869 17.494293 2.776322 # CT
362 73 2 0.060000 18.229084 17.982572 2.083424 # HC
363 73 2 0.060000 16.983998 18.248176 3.322947 # HC
364 73 2 0.060000 18.115387 16.886831 3.477569 # HC
365 73 2 0.060000 16.859016 16.859600 2.221390 # HC
366 74 1 -0.240000 14.226385 21.741426 7.096323 # CT
367 74 2 0.060000 13.192773 21.654206 6.767720 # HC
368 74 2 0.060000 14.261196 21.756744 8.183758 # HC
369 74 2 0.060000 14.654304 22.662881 6.706737 # HC
370 74 2 0.060000 14.797280 20.891910 6.727095 # HC
371 75 1 -0.240000 7.744774 8.281974 9.488350 # CT
372 75 2 0.060000 7.823783 9.095018 8.769561 # HC
373 75 2 0.060000 7.379024 7.388466 8.986521 # HC
374 75 2 0.060000 7.052217 8.562995 10.279148 # HC
375 75 2 0.060000 8.724031 8.081402 9.918179 # HC
376 76 1 -0.240000 13.423994 20.554562 9.711653 # CT
377 76 2 0.060000 13.232407 21.156351 8.825602 # HC
378 76 2 0.060000 12.552210 20.579219 10.362305 # HC
379 76 2 0.060000 14.284703 20.955363 10.243169 # HC
380 76 2 0.060000 13.626658 19.527337 9.415575 # HC
381 77 1 -0.240000 0.986389 16.625316 4.121375 # CT
382 77 2 0.060000 1.662925 17.253750 3.545780 # HC
383 77 2 0.060000 0.112850 17.204838 4.413003 # HC
384 77 2 0.060000 1.496240 16.264507 5.012351 # HC
385 77 2 0.060000 0.673532 15.778180 3.514408 # HC
386 78 1 -0.240000 6.734824 5.908996 7.565012 # CT
387 78 2 0.060000 6.508874 5.772116 6.509478 # HC
388 78 2 0.060000 7.809041 6.024747 7.693940 # HC
389 78 2 0.060000 6.393905 5.040273 8.124534 # HC
390 78 2 0.060000 6.227498 6.798818 7.932116 # HC
391 79 1 -0.240000 22.155947 18.509282 3.119892 # CT
392 79 2 0.060000 21.424784 17.710982 3.010075 # HC
393 79 2 0.060000 21.847476 19.175723 3.922801 # HC
394 79 2 0.060000 22.223856 19.069436 2.189523 # HC
395 79 2 0.060000 23.127661 18.081024 3.357159 # HC
396 80 1 -0.240000 22.501358 19.831521 6.616221 # CT
397 80 2 0.060000 23.128774 20.719153 6.665194 # HC
398 80 2 0.060000 21.467558 20.106677 6.814991 # HC
399 80 2 0.060000 22.834237 19.110572 7.360125 # HC
400 80 2 0.060000 22.574843 19.389668 5.624609 # HC
401 81 1 -0.240000 21.890352 0.557829 10.294409 # CT
402 81 2 0.060000 22.166017 1.581610 10.049822 # HC
403 81 2 0.060000 22.780938 -0.000061 10.576504 # HC
404 81 2 0.060000 21.428498 0.089607 9.427558 # HC
405 81 2 0.060000 21.185968 0.560129 11.123725 # HC
406 82 1 -0.240000 5.676636 9.958258 18.483074 # CT
407 82 2 0.060000 5.582691 9.757662 17.417768 # HC
408 82 2 0.060000 6.719314 9.863557 18.779413 # HC
409 82 2 0.060000 5.074675 9.243975 19.041117 # HC
410 82 2 0.060000 5.329878 10.967806 18.694022 # HC
411 83 1 -0.240000 2.705242 20.372830 12.155620 # CT
412 83 2 0.060000 1.756445 20.540691 11.650102 # HC
413 83 2 0.060000 2.568894 19.640978 12.949196 # HC
414 83 2 0.060000 3.059375 21.308960 12.582493 # HC
415 83 2 0.060000 3.436257 20.000705 11.440730 # HC
416 84 1 -0.240000 15.794347 17.117697 0.787658 # CT
417 84 2 0.060000 16.180380 17.761531 0.000005 # HC
418 84 2 0.060000 15.786487 17.662025 1.729788 # HC
419 84 2 0.060000 16.429293 16.239080 0.881709 # HC
420 84 2 0.060000 14.781256 16.808143 0.539163 # HC
421 85 1 -0.240000 15.843355 20.150879 3.396001 # CT
422 85 2 0.060000 16.018516 21.173691 3.068715 # HC
423 85 2 0.060000 15.166355 19.658532 2.700855 # HC
424 85 2 0.060000 15.400106 20.158906 4.389700 # HC
425 85 2 0.060000 16.788403 19.612376 3.424748 # HC
426 86 1 -0.240000 21.152824 18.782287 22.241694 # CT
427 86 2 0.060000 21.799059 18.765633 21.366455 # HC
428 86 2 0.060000 21.749975 18.979030 23.129763 # HC
429 86 2 0.060000 20.656424 17.819475 22.344405 # HC
430 86 2 0.060000 20.405845 19.564980 22.126184 # HC
431 87 1 -0.240000 17.558946 21.471666 17.603418 # CT
432 87 2 0.060000 16.626869 21.280440 18.131250 # HC
433 87 2 0.060000 17.340808 21.875054 16.616677 # HC
434 87 2 0.060000 18.114766 20.541924 17.500398 # HC
435 87 2 0.060000 18.153349 22.189224 18.165311 # HC
436 88 1 -0.240000 3.426054 22.157691 14.179565 # CT
437 88 2 0.060000 3.058903 22.996237 14.767767 # HC
438 88 2 0.060000 4.314064 22.461894 13.629236 # HC
439 88 2 0.060000 2.655922 21.841235 13.479049 # HC
440 88 2 0.060000 3.675327 21.331402 14.842163 # HC
441 89 1 -0.240000 19.858758 14.996167 15.805016 # CT
442 89 2 0.060000 20.773006 15.404171 16.231189 # HC
443 89 2 0.060000 19.193533 15.810823 15.526135 # HC
444 89 2 0.060000 19.367339 14.362137 16.540191 # HC
445 89 2 0.060000 20.101117 14.407545 14.922568 # HC
446 90 1 -0.240000 20.679084 7.927340 11.391605 # CT
447 90 2 0.060000 20.690264 8.155459 12.455456 # HC
448 90 2 0.060000 21.701172 7.847019 11.027124 # HC
449 90 2 0.060000 20.164298 8.722128 10.855623 # HC
450 90 2 0.060000 20.160618 6.984781 11.228192 # HC
451 91 1 -0.240000 11.444479 9.734202 9.373354 # CT
452 91 2 0.060000 10.462887 9.918467 8.941539 # HC
453 91 2 0.060000 11.422235 8.806867 9.942139 # HC
454 91 2 0.060000 11.711100 10.557746 10.032641 # HC
455 91 2 0.060000 12.181699 9.653730 8.577138 # HC
456 92 1 -0.240000 5.906812 3.111266 2.700187 # CT
457 92 2 0.060000 5.253304 3.746599 2.105863 # HC
458 92 2 0.060000 5.571927 3.114086 3.735468 # HC
459 92 2 0.060000 6.925856 3.489094 2.647601 # HC
460 92 2 0.060000 5.876184 2.095302 2.311846 # HC
461 93 1 -0.240000 13.361676 2.626404 6.430524 # CT
462 93 2 0.060000 12.780155 2.176015 7.232349 # HC
463 93 2 0.060000 12.701760 2.884779 5.604863 # HC
464 93 2 0.060000 14.113472 1.919109 6.086277 # HC
465 93 2 0.060000 13.851319 3.525692 6.798570 # HC
466 94 1 -0.240000 19.300767 19.831374 6.560197 # CT
467 94 2 0.060000 19.436010 20.141764 5.526123 # HC
468 94 2 0.060000 18.272000 20.015998 6.862711 # HC
469 94 2 0.060000 19.974203 20.398025 7.200009 # HC
470 94 2 0.060000 19.520846 18.769738 6.651972 # HC
471 95 1 -0.240000 21.326274 1.886335 6.933660 # CT
472 95 2 0.060000 22.365361 1.565208 6.900238 # HC
473 95 2 0.060000 21.278089 2.926512 7.249370 # HC
474 95 2 0.060000 20.777798 1.267005 7.640466 # HC
475 95 2 0.060000 20.883833 1.786626 5.944604 # HC
476 96 1 -0.240000 20.201291 21.014809 3.916282 # CT
477 96 2 0.060000 20.960203 21.289634 4.645984 # HC
478 96 2 0.060000 19.442310 21.793216 3.871639 # HC
479 96 2 0.060000 19.739460 20.074364 4.209954 # HC
480 96 2 0.060000 20.663153 20.902016 2.937564 # HC
481 97 1 -0.240000 16.286437 9.553936 12.699893 # CT
482 97 2 0.060000 17.316843 9.290322 12.929484 # HC
483 97 2 0.060000 15.621019 9.070447 13.412228 # HC
484 97 2 0.060000 16.042823 9.221681 11.692803 # HC
485 97 2 0.060000 16.165035 10.633262 12.765044 # HC
486 98 1 -0.240000 21.740467 15.434729 6.437925 # CT
487 98 2 0.060000 21.266469 15.250948 7.399949 # HC
488 98 2 0.060000 22.483347 16.222631 6.544237 # HC
489 98 2 0.060000 20.987192 15.741610 5.715173 # HC
490 98 2 0.060000 22.224854 14.523765 6.092321 # HC
491 99 1 -0.240000 2.122808 20.381487 20.202915 # CT
492 99 2 0.060000 3.076003 20.164034 20.680486 # HC
493 99 2 0.060000 1.931314 19.646262 19.423982 # HC
494 99 2 0.060000 2.156233 21.375981 19.762649 # HC
495 99 2 0.060000 1.327681 20.339682 20.944504 # HC
496 100 1 -0.240000 5.200954 13.021411 2.013253 # CT
497 100 2 0.060000 5.723806 12.852569 2.952433 # HC
498 100 2 0.060000 5.915437 13.320572 1.249068 # HC
499 100 2 0.060000 4.461364 13.808359 2.146255 # HC
500 100 2 0.060000 4.703209 12.104184 1.705240 # HC
501 101 1 -0.240000 9.383915 12.322672 1.997075 # CT
502 101 2 0.060000 8.889055 11.363191 1.861238 # HC
503 101 2 0.060000 9.060488 12.767907 2.935756 # HC
504 101 2 0.060000 9.124346 12.984489 1.173308 # HC
505 101 2 0.060000 10.461748 12.175135 2.017996 # HC
506 102 1 -0.240000 8.146355 17.939306 15.132979 # CT
507 102 2 0.060000 9.229447 17.902772 15.035427 # HC
508 102 2 0.060000 7.721285 18.446377 14.269175 # HC
509 102 2 0.060000 7.881824 18.481699 16.038409 # HC
510 102 2 0.060000 7.752844 16.926414 15.188909 # HC
511 103 1 -0.240000 7.475095 11.719632 20.445589 # CT
512 103 2 0.060000 8.015235 11.307244 19.595809 # HC
513 103 2 0.060000 8.173560 12.227630 21.107439 # HC
514 103 2 0.060000 6.982153 10.914884 20.987215 # HC
515 103 2 0.060000 6.729440 12.428752 20.091931 # HC
516 104 1 -0.240000 21.539692 10.471928 3.688709 # CT
517 104 2 0.060000 22.352840 10.574302 2.972992 # HC
518 104 2 0.060000 21.823355 9.759252 4.460454 # HC
519 104 2 0.060000 20.648192 10.116002 3.176348 # HC
520 104 2 0.060000 21.334360 11.438119 4.145046 # HC
521 105 1 -0.240000 22.177182 12.555353 7.560914 # CT
522 105 2 0.060000 21.502778 12.109945 6.832401 # HC
523 105 2 0.060000 23.129558 12.029419 7.542546 # HC
524 105 2 0.060000 21.739766 12.478932 8.554290 # HC
525 105 2 0.060000 22.336640 13.603092 7.314452 # HC
526 106 1 -0.240000 2.833296 15.358751 11.511349 # CT
527 106 2 0.060000 2.771109 16.434471 11.662678 # HC
528 106 2 0.060000 2.876725 14.858588 12.476706 # HC
529 106 2 0.060000 3.729447 15.123976 10.940593 # HC
530 106 2 0.060000 1.955937 15.017950 10.965433 # HC
531 107 1 -0.240000 18.064611 17.912584 20.973583 # CT
532 107 2 0.060000 17.344245 17.629576 21.738384 # HC
533 107 2 0.060000 18.942268 18.349250 21.445815 # HC
534 107 2 0.060000 17.613798 18.640770 20.302402 # HC
535 107 2 0.060000 18.358139 17.030783 20.407725 # HC
536 108 1 -0.240000 5.791291 3.105965 12.635101 # CT
537 108 2 0.060000 5.751125 4.190765 12.709512 # HC
538 108 2 0.060000 6.671708 2.813775 12.066371 # HC
539 108 2 0.060000 4.897432 2.743616 12.131426 # HC
540 108 2 0.060000 5.844895 2.675688 13.633057 # HC
541 109 1 -0.240000 4.165354 4.619626 7.701473 # CT
542 109 2 0.060000 3.259545 5.214540 7.603854 # HC
543 109 2 0.060000 4.737633 4.676024 6.777742 # HC
544 109 2 0.060000 3.899118 3.583538 7.900496 # HC
545 109 2 0.060000 4.765123 5.004368 8.523774 # HC
546 110 1 -0.240000 11.064358 12.095036 9.336911 # CT
547 110 2 0.060000 10.831234 11.336682 10.081555 # HC
548 110 2 0.060000 10.141879 12.460580 8.890401 # HC
549 110 2 0.060000 11.695006 11.661862 8.563209 # HC
550 110 2 0.060000 11.589305 12.921009 9.812438 # HC
551 111 1 -0.240000 4.062517 3.567095 20.288616 # CT
552 111 2 0.060000 4.527783 3.746397 21.255735 # HC
553 111 2 0.060000 4.822899 3.267429 19.570297 # HC
554 111 2 0.060000 3.577859 4.478583 19.944718 # HC
555 111 2 0.060000 3.321537 2.775995 20.383682 # HC
556 112 1 -0.240000 16.956145 19.809656 21.741886 # CT
557 112 2 0.060000 17.442052 20.570623 22.349146 # HC
558 112 2 0.060000 17.709898 19.154757 21.309538 # HC
559 112 2 0.060000 16.390998 20.288134 20.944616 # HC
560 112 2 0.060000 16.281637 19.225112 22.364201 # HC
561 113 1 -0.240000 16.010214 19.616266 12.132430 # CT
562 113 2 0.060000 15.932574 18.913682 12.959648 # HC
563 113 2 0.060000 15.264131 19.372971 11.378686 # HC
564 113 2 0.060000 17.003746 19.551401 11.693504 # HC
565 113 2 0.060000 15.840417 20.626993 12.497844 # HC
566 114 1 -0.240000 19.426818 4.501547 17.565421 # CT
567 114 2 0.060000 18.648358 3.845451 17.181390 # HC
568 114 2 0.060000 20.323410 3.919795 17.769503 # HC
569 114 2 0.060000 19.083376 4.972860 18.484052 # HC
570 114 2 0.060000 19.652141 5.268076 16.826780 # HC