1002
# CELL(abcABC):   43.70936    43.70936    43.70936    90.00000    90.00000    90.00000  Step:         100  Bead:       0 x_centroid{angstrom}  cell{atomic_unit}
       C  1.97711e+01  1.92138e+01  9.90553e-01
       H  1.99584e+01  1.81316e+01  9.74062e-01
       H  1.87051e+01  1.94045e+01  8.10989e-01
       H  2.03648e+01  1.97067e+01  2.08236e-01
       H  2.00513e+01  1.96111e+01  1.97429e+00
       C  1.86917e+01  1.49429e+01  7.05874e+00
       H  1.92442e+01  1.53544e+01  7.91335e+00
       H  1.93999e+01  1.45042e+01  6.34192e+00
       H  1.81240e+01  1.57455e+01  6.56728e+00
       H  1.79968e+01  1.41694e+01  7.41126e+00
       C  4.50119e+00  1.79553e+01  1.00528e+01
       H  4.94627e+00  1.70710e+01  1.05292e+01
       H  4.84536e+00  1.80191e+01  9.01157e+00
       H  4.80969e+00  1.88576e+01  1.05969e+01
       H  3.40667e+00  1.78718e+01  1.00724e+01
       C  2.64602e+00  1.18241e+01  9.76309e+00
       H  2.66144e+00  1.18080e+01  1.08609e+01
       H  2.72608e+00  1.07981e+01  9.38148e+00
       H  3.49184e+00  1.24201e+01  9.39167e+00
       H  1.70334e+00  1.22695e+01  9.41954e+00
       C  2.78074e+00  1.95447e+01  7.15917e+00
       H  2.34698e+00  2.00073e+01  6.25960e+00
       H  2.12125e+00  1.87382e+01  7.50062e+00
       H  2.87912e+00  2.03033e+01  7.94649e+00
       H  3.77025e+00  1.91329e+01  6.92054e+00
       C  7.50144e+00  7.70460e+00 -3.09529e-01
       H  6.82143e+00  8.08832e+00 -1.08230e+00
       H  8.35414e+00  7.20298e+00 -7.87202e-01
       H  6.96608e+00  6.98653e+00  3.26124e-01
       H  7.86558e+00  8.53830e+00  3.05864e-01
       C  2.29770e+01  1.04966e+01  2.18877e+01
       H  2.31102e+01  1.15156e+01  2.15003e+01
       H  2.26871e+01  9.82859e+00  2.10660e+01
       H  2.21918e+01  1.04961e+01  2.26562e+01
       H  2.39208e+01  1.01463e+01  2.23265e+01
       C  5.65793e+00  2.13934e+01  8.90376e+00
       H  4.65208e+00  2.16328e+01  9.27451e+00
       H  5.98757e+00  2.21738e+01  8.20473e+00
       H  5.63615e+00  2.04254e+01  8.38492e+00
       H  6.35519e+00  2.13395e+01  9.75048e+00
       C  9.19361e+00  2.17419e+01  1.65777e+01
       H  1.02165e+01  2.19855e+01  1.68951e+01
       H  9.08884e+00  2.06525e+01  1.64858e+01
       H  8.98886e+00  2.22129e+01  1.56063e+01
       H  8.48027e+00  2.21172e+01  1.73237e+01
       C  2.01021e+01  8.94228e+00  1.93984e+01
       H  1.97976e+01  9.71617e+00  2.01165e+01
       H  1.93661e+01  8.12658e+00  1.94089e+01
       H  2.10889e+01  8.55022e+00  1.96771e+01
       H  2.01564e+01  9.37458e+00  1.83905e+01
       C  1.65923e+01  4.17774e+00  1.31110e+00
       H  1.58737e+01  4.36034e+00  5.00551e-01
       H  1.60992e+01  3.62010e+00  2.11896e+00
       H  1.69570e+01  5.13784e+00  1.70000e+00
       H  1.74392e+01  3.59290e+00  9.27302e-01
       C  2.14940e+01  1.42081e+01  3.07454e+00
       H  2.06549e+01  1.37230e+01  3.58255e+00
       H  2.19659e+01  1.49410e+01  3.75587e+00
       H  2.11279e+01  1.47393e+01  2.18600e+00
       H  2.22362e+01  1.34560e+01  2.78492e+00
       C  1.89505e+01  9.36619e+00  5.40614e+00
       H  1.90917e+01  1.03166e+01  5.93781e+00
       H  1.86455e+01  9.57078e+00  4.37094e+00
       H  1.81723e+01  8.77733e+00  5.90895e+00
       H  1.98934e+01  8.80282e+00  5.40689e+00
       C  2.03123e+01  1.99659e+01  1.11159e+01
       H  2.09907e+01  2.07257e+01  1.07103e+01
       H  1.94729e+01  1.98222e+01  1.04199e+01
       H  1.99371e+01  2.03001e+01  1.20903e+01
       H  2.08503e+01  1.90158e+01  1.12309e+01
       C  6.90762e+00  9.43864e+00  7.36234e+00
       H  6.50047e+00  9.03057e+00  6.42752e+00
       H  8.00487e+00  9.39927e+00  7.33141e+00
       H  6.54416e+00  8.84117e+00  8.20918e+00
       H  6.58067e+00  1.04804e+01  7.48007e+00
       C  1.07355e+01  1.58098e+01  4.88265e+00
       H  9.89084e+00  1.64616e+01  5.14546e+00
       H  1.15633e+01  1.64196e+01  4.49520e+00
       H  1.04184e+01  1.50930e+01  4.11358e+00
       H  1.10694e+01  1.52647e+01  5.77552e+00
       C  2.13339e+01  2.57726e+00  2.24577e+01
       H  2.10727e+01  1.72797e+00  2.18114e+01
       H  2.05405e+01  2.72877e+00  2.32006e+01
       H  2.14415e+01  3.48407e+00  2.18473e+01
       H  2.22816e+01  2.36909e+00  2.29729e+01
       C  1.08844e+01  1.53458e+01  1.50110e+01
       H  1.17955e+01  1.58015e+01  1.45997e+01
       H  1.11307e+01  1.43700e+01  1.54481e+01
       H  1.01447e+01  1.52121e+01  1.42088e+01
       H  1.04673e+01  1.59982e+01  1.57898e+01
       C  2.25436e+01  1.07802e+01  1.54664e+01
       H  2.30036e+01  1.01729e+01  1.46751e+01
       H  2.27546e+01  1.18430e+01  1.52835e+01
       H  2.29589e+01  1.04872e+01  1.64405e+01
       H  2.14576e+01  1.06178e+01  1.54690e+01
       C  5.21907e-01  1.92405e+01  1.00058e+01
       H  5.37860e-01  1.92799e+01  1.10994e+01
       H  9.25680e-01  1.82680e+01  9.67316e+00
       H  1.13058e+00  2.00568e+01  9.60241e+00
       H -5.08764e-01  1.93378e+01  9.63897e+00
       C  1.39312e+00  4.77166e+00  1.71769e+01
       H  2.46136e+00  4.52109e+00  1.71264e+01
       H  8.05617e-01  3.94498e+00  1.67555e+01
       H  1.20540e+00  5.68770e+00  1.65997e+01
       H  1.10210e+00  4.93136e+00  1.82239e+01
       C  1.62203e+01  2.38764e+01  9.89607e+00
       H  1.64323e+01  2.34181e+01  8.92164e+00
       H  1.54748e+01  2.32699e+01  1.04269e+01
       H  1.58267e+01  2.48916e+01  9.74524e+00
       H  1.71447e+01  2.39251e+01  1.04869e+01
       C  1.17184e+01  2.48683e+01  1.00193e+01
       H  1.22394e+01  2.58010e+01  1.02747e+01
       H  1.24476e+01  2.40494e+01  9.95263e+00
       H  1.12088e+01  2.49860e+01  9.05301e+00
       H  1.09785e+01  2.46363e+01  1.07971e+01
       C  1.43778e+01  1.34150e+01  9.09482e+00
       H  1.45786e+01  1.25823e+01  8.40823e+00
       H  1.33864e+01  1.38358e+01  8.87810e+00
       H  1.51397e+01  1.41943e+01  8.95969e+00
       H  1.44001e+01  1.30515e+01  1.01313e+01
       C  1.02363e+01  7.51321e+00  1.41088e+01
       H  1.00773e+01  7.81759e+00  1.30669e+01
       H  9.31249e+00  7.67689e+00  1.46834e+01
       H  1.10498e+01  8.10846e+00  1.45448e+01
       H  1.05060e+01  6.45015e+00  1.41419e+01
       C  1.00907e+01  5.70346e+00  8.01944e+00
       H  1.06969e+01  6.45859e+00  7.50188e+00
       H  9.35982e+00  6.20639e+00  8.66664e+00
       H  1.07408e+01  5.06335e+00  8.63140e+00
       H  9.56717e+00  5.08460e+00  7.27842e+00
       C  1.26425e+01  4.70588e+00  6.17684e+00
       H  1.35301e+01  4.36396e+00  5.62972e+00
       H  1.29155e+01  4.91770e+00  7.21935e+00
       H  1.18729e+01  3.91985e+00  6.15419e+00
       H  1.22473e+01  5.61575e+00  5.70750e+00
       C  1.71488e+01  1.52980e+01  1.50594e+01
       H  1.73694e+01  1.62892e+01  1.54763e+01
       H  1.80216e+01  1.49307e+01  1.45042e+01
       H  1.62912e+01  1.53691e+01  1.43774e+01
       H  1.69102e+01  1.46022e+01  1.58755e+01
       C  1.24899e+01  1.84143e+01  1.28521e+01
       H  1.17958e+01  1.80159e+01  1.21000e+01
       H  1.20189e+01  1.83611e+01  1.38428e+01
       H  1.27234e+01  1.94611e+01  1.26153e+01
       H  1.34131e+01  1.78185e+01  1.28475e+01
       C  1.06025e+01  1.13217e+01  1.26004e+01
       H  1.05616e+01  1.02676e+01  1.22956e+01
       H  9.60661e+00  1.16428e+01  1.29342e+01
       H  1.09191e+01  1.19383e+01  1.17488e+01
       H  1.13188e+01  1.14377e+01  1.34249e+01
       C  1.12575e+01  2.03580e+01  6.04984e+00
       H  1.13925e+01  1.96309e+01  6.86107e+00
       H  1.12765e+01  2.13759e+01  6.46239e+00
       H  1.02924e+01  2.01838e+01  5.55681e+00
       H  1.20671e+01  2.02421e+01  5.31644e+00
       C  9.20255e+00  2.03592e+01  2.81632e+00
       H  8.90007e+00  2.13852e+01  3.05531e+00
       H  8.67727e+00  1.96579e+01  3.48039e+00
       H  1.02867e+01  2.02483e+01  2.95559e+00
       H  8.94444e+00  2.01415e+01  1.77100e+00
       C  1.54402e+01  5.48464e+00  1.03249e+01
       H  1.61951e+01  5.16497e+00  9.59368e+00
       H  1.58168e+01  5.30756e+00  1.13417e+01
       H  1.45161e+01  4.91044e+00  1.01721e+01
       H  1.52324e+01  6.55509e+00  1.01922e+01
       C  1.18174e+01  4.22637e+00  2.71689e+00
       H  1.07868e+01  3.92078e+00  2.49349e+00
       H  1.23439e+01  3.40527e+00  3.22253e+00
       H  1.18000e+01  5.11132e+00  3.36611e+00
       H  1.23399e+01  4.47152e+00  1.78283e+00
       C  1.42435e+01  1.53450e+01  6.04394e+00
       H  1.37188e+01  1.44106e+01  6.28829e+00
       H  1.52863e+01  1.52794e+01  6.38247e+00
       H  1.37488e+01  1.61846e+01  6.54993e+00
       H  1.42181e+01  1.55045e+01  4.95740e+00
       C  1.69078e+01  1.39403e+01  2.43767e+00
       H  1.67519e+01  1.28736e+01  2.22836e+00
       H  1.78306e+01  1.40662e+01  3.01947e+00
       H  1.60554e+01  1.43275e+01  3.01301e+00
       H  1.69951e+01  1.44922e+01  1.49230e+00
       C  9.64616e+00  2.18637e+01  9.38045e+00
       H  8.60137e+00  2.21466e+01  9.19616e+00
       H  1.03077e+01  2.24706e+01  8.74797e+00
       H  9.78825e+00  2.08018e+01  9.13980e+00
       H  9.89007e+00  2.20332e+01  1.04379e+01
       C  1.96141e+01  2.92644e+00  1.04076e+01
       H  1.98598e+01  2.17663e+00  9.64371e+00
       H  1.86766e+01  3.43168e+00  1.01378e+01
       H  2.04247e+01  3.66552e+00  1.04670e+01
       H  1.94956e+01  2.43115e+00  1.13809e+01
       C  8.61097e+00  1.78172e+01  1.87040e+01
       H  8.61050e+00  1.87077e+01  1.80611e+01
       H  7.60609e+00  1.76744e+01  1.91209e+01
       H  9.33503e+00  1.79517e+01  1.95182e+01
       H  8.89187e+00  1.69329e+01  1.81133e+01
       C  1.94816e+01  1.15785e+01  1.29028e+00
       H  1.90330e+01  1.08973e+01  5.54505e-01
       H  1.91241e+01  1.13224e+01  2.29700e+00
       H  1.91940e+01  1.26118e+01  1.05289e+00
       H  2.05751e+01  1.14858e+01  1.25342e+00
       C  1.65688e+01  2.00994e+01  8.89199e+00
       H  1.73264e+01  2.08562e+01  8.65560e+00
       H  1.58331e+01  2.05287e+01  9.58290e+00
       H  1.70498e+01  1.92307e+01  9.36091e+00
       H  1.60647e+01  1.97803e+01  7.96758e+00
       C  5.07163e+00  1.80514e+00 -1.24867e-01
       H  4.09922e+00  1.56328e+00 -5.74170e-01
       H  5.14869e+00  1.32704e+00  8.61145e-01
       H  5.16234e+00  2.89429e+00 -1.43034e-02
       H  5.87741e+00  1.43607e+00 -7.74052e-01
       C  2.83915e+00  1.88928e+00  1.09069e+01
       H  2.19076e+00  1.30914e+00  1.02363e+01
       H  2.63118e+00  1.61431e+00  1.19496e+01
       H  2.64365e+00  2.96093e+00  1.07664e+01
       H  3.89066e+00  1.67372e+00  1.06766e+01
       C  7.51867e+00  6.62237e+00  1.94454e+01
       H  6.56966e+00  6.57651e+00  2.00002e+01
       H  7.32131e+00  6.91152e+00  1.84041e+01
       H  8.00173e+00  5.63773e+00  1.94662e+01
       H  8.18243e+00  7.36304e+00  1.99092e+01
       C  6.18061e+00  1.06317e+01  4.02480e+00
       H  6.01155e+00  1.11005e+01  3.04675e+00
       H  6.11912e+00  1.13934e+01  4.81397e+00
       H  7.17535e+00  1.01660e+01  4.04120e+00
       H  5.41518e+00  9.86411e+00  4.20012e+00
       C  1.25123e+01  3.25665e+00  1.39139e+01
       H  1.20255e+01  2.59577e+00  1.31840e+01
       H  1.33268e+01  2.71472e+00  1.44129e+01
       H  1.17768e+01  3.58120e+00  1.46620e+01
       H  1.29210e+01  4.13601e+00  1.33974e+01
       C  1.44707e+01  6.34238e+00  3.22117e+00
       H  1.42362e+01  6.32375e+00  2.14689e+00
       H  1.55401e+01  6.54822e+00  3.36565e+00
       H  1.42304e+01  5.36796e+00  3.66506e+00
       H  1.38765e+01  7.12360e+00  3.71071e+00
       C  7.13660e-01  5.71673e+00  9.72244e+00
       H  9.57847e-01  6.15306e+00  8.74421e+00
       H  1.14963e+00  6.33610e+00  1.05182e+01
       H  1.12382e+00  4.70012e+00  9.78311e+00
       H -3.77627e-01  5.67828e+00  9.84339e+00
       C  1.74388e+01  1.19635e+01  1.38483e+01
       H  1.69521e+01  1.28767e+01  1.34827e+01
       H  1.82865e+01  1.22353e+01  1.44925e+01
       H  1.77958e+01  1.13729e+01  1.29941e+01
       H  1.67157e+01  1.13708e+01  1.44238e+01
       C  2.16122e+01  5.97905e+00  6.49819e+00
       H  2.20896e+01  5.35648e+00  5.72956e+00
       H  2.21927e+01  6.90175e+00  6.63149e+00
       H  2.15781e+01  5.42664e+00  7.44711e+00
       H  2.05901e+01  6.23028e+00  6.18399e+00
       C  7.76393e+00  1.49770e+01  2.02238e+00
       H  6.75454e+00  1.53219e+01  1.76251e+00
       H  8.41346e+00  1.50514e+01  1.13899e+00
       H  7.71810e+00  1.39327e+01  2.35706e+00
       H  8.16917e+00  1.56030e+01  2.82838e+00
       C  8.39687e+00  1.88683e+01  7.41198e+00
       H  7.45412e+00  1.85429e+01  7.87112e+00
       H  9.23570e+00  1.86115e+01  8.07364e+00
       H  8.37152e+00  1.99553e+01  7.25642e+00
       H  8.52698e+00  1.83617e+01  6.44678e+00
       C  1.86184e+01  4.58543e+00  2.12286e+01
       H  1.87397e+01  4.79082e+00  2.23008e+01
       H  1.84222e+01  3.51521e+00  2.10775e+01
       H  1.95390e+01  4.86701e+00  2.07003e+01
       H  1.77764e+01  5.16959e+00  2.08350e+01
       C  9.99901e+00 -1.45137e-01  2.01811e+01
       H  9.96774e+00  4.05038e-01  1.92307e+01
       H  9.04622e+00 -6.70940e-01  2.03301e+01
       H  1.01607e+01  5.60838e-01  2.10072e+01
       H  1.08205e+01 -8.74047e-01  2.01570e+01
       C  2.21953e+01  1.64405e+01  1.86088e+01
       H  2.27640e+01  1.58757e+01  1.93594e+01
       H  2.15239e+01  1.71490e+01  1.91131e+01
       H  2.16026e+01  1.57442e+01  1.80027e+01
       H  2.28886e+01  1.69923e+01  1.79590e+01
       C  2.28945e+01  2.27913e+00  1.27056e+01
       H  2.33559e+01  2.89694e+00  1.19232e+01
       H  2.34886e+01  1.36712e+00  1.28525e+01
       H  2.18761e+01  2.00544e+00  1.23999e+01
       H  2.28570e+01  2.84662e+00  1.36455e+01
       C  7.21494e+00  2.26229e+00  5.62514e+00
       H  6.98117e+00  2.05900e+00  4.57167e+00
       H  7.67759e+00  1.37386e+00  6.07522e+00
       H  6.28873e+00  2.50525e+00  6.16368e+00
       H  7.91338e+00  3.10765e+00  5.68826e+00
       C  5.17304e+00  6.71817e+00  3.10651e+00
       H  5.73302e+00  7.63051e+00  2.86058e+00
       H  4.09682e+00  6.93825e+00  3.10828e+00
       H  5.47364e+00  6.36204e+00  4.10060e+00
       H  5.38953e+00  5.94255e+00  2.35899e+00
       C  1.86873e+01  2.33713e+01  7.07734e+00
       H  1.87745e+01  2.40525e+01  7.93493e+00
       H  1.76317e+01  2.32907e+01  6.78503e+00
       H  1.90719e+01  2.23807e+01  7.35199e+00
       H  1.92695e+01  2.37677e+01  6.23477e+00
       C  1.89982e+01  7.58548e+00  2.08349e+00
       H  1.86732e+01  8.47999e+00  1.53504e+00
       H  1.89470e+01  6.71140e+00  1.42112e+00
       H  1.83397e+01  7.42631e+00  2.94801e+00
       H  2.00316e+01  7.72470e+00  2.42963e+00
       C  2.97882e+00  4.23496e+00  1.39952e+01
       H  3.06224e+00  3.25443e+00  1.44838e+01
       H  3.69357e+00  4.93442e+00  1.44494e+01
       H  1.95897e+00  4.62310e+00  1.41207e+01
       H  3.20117e+00  4.13095e+00  1.29251e+01
       C  3.98683e+00  1.93057e+01  3.87903e+00
       H  4.49528e+00  1.98892e+01  4.66291e+00
       H  4.20075e+00  1.97529e+01  2.90200e+00
       H  2.90645e+00  1.93130e+01  4.06205e+00
       H  4.35750e+00  1.82733e+01  3.89804e+00
       C  1.13891e+00  4.87206e+00  2.19127e+01
       H  2.12221e+00  4.90180e+00  2.24016e+01
       H  9.82510e-01  3.88128e+00  2.14646e+01
       H  1.09566e+00  5.63818e+00  2.11269e+01
       H  3.55902e-01  5.06598e+00  2.26584e+01
       C  7.46723e+00  2.66800e+00  1.99576e+01
       H  7.36951e+00  2.99405e+00  1.89131e+01
       H  6.87096e+00  3.32722e+00  2.05990e+01
       H  8.52241e+00  2.70980e+00  2.02702e+01
       H  7.10303e+00  1.63732e+00  2.00571e+01
       C  2.74390e+00  1.05503e+01  2.52894e+00
       H  3.17718e+00  1.13896e+01  3.08984e+00
       H  1.75871e+00  1.08382e+01  2.13703e+00
       H  2.63435e+00  9.68286e+00  3.19392e+00
       H  3.40658e+00  1.02869e+01  1.69419e+00
       C  2.29974e+01  2.25742e+01  6.76424e-01
       H  2.20721e+01  2.20152e+01  8.70558e-01
       H  2.28303e+01  2.32746e+01 -1.52215e-01
       H  2.37996e+01  2.18737e+01  4.06932e-01
       H  2.32860e+01  2.31338e+01  1.57627e+00
       C  1.04769e+00  1.35694e+01  1.77286e+01
       H  3.29808e-01  1.28573e+01  1.81578e+01
       H  5.06594e-01  1.43226e+01  1.71411e+01
       H  1.75102e+00  1.30291e+01  1.70808e+01
       H  1.60279e+00  1.40653e+01  1.85364e+01
       C  2.04597e+01  1.27176e+01  1.79291e+01
       H  1.94185e+01  1.30151e+01  1.77469e+01
       H  2.09879e+01  1.26291e+01  1.69707e+01
       H  2.04797e+01  1.17510e+01  1.84496e+01
       H  2.09561e+01  1.34761e+01  1.85482e+01
       C  2.19044e+01  1.60165e+01  1.11756e+01
       H  2.10603e+01  1.63872e+01  1.05790e+01
       H  2.15859e+01  1.58814e+01  1.22173e+01
       H  2.27262e+01  1.67438e+01  1.11386e+01
       H  2.22469e+01  1.50550e+01  1.07693e+01
       C  5.63450e+00  1.10259e+01  1.15399e+01
       H  4.75277e+00  1.03750e+01  1.14788e+01
       H  6.34548e+00  1.06109e+01  1.22660e+01
       H  5.32314e+00  1.20302e+01  1.18597e+01
       H  6.11428e+00  1.10855e+01  1.05533e+01
       C  1.67469e+01  1.22281e+01  5.44964e+00
       H  1.58503e+01  1.28517e+01  5.33243e+00
       H  1.67084e+01  1.17078e+01  6.41618e+00
       H  1.76429e+01  1.28608e+01  5.40531e+00
       H  1.67872e+01  1.14894e+01  4.63851e+00
       C  2.34649e+01  7.83416e+00  2.01457e+00
       H  2.34250e+01  8.11088e+00  3.07705e+00
       H  2.27064e+01  7.06777e+00  1.80653e+00
       H  2.44601e+01  7.43549e+00  1.77515e+00
       H  2.32680e+01  8.72231e+00  1.39887e+00
       C  1.71652e+01  1.71496e+01  3.83155e+00
       H  1.75203e+01  1.80015e+01  3.23624e+00
       H  1.70096e+01  1.74660e+01  4.87121e+00
       H  1.79126e+01  1.63457e+01  3.80388e+00
       H  1.62176e+01  1.67816e+01  3.41537e+00
       C  1.44736e+01  2.17569e+01  6.30776e+00
       H  1.34593e+01  2.21755e+01  6.31980e+00
       H  1.49807e+01  2.20091e+01  7.24832e+00
       H  1.50332e+01  2.21822e+01  5.46275e+00
       H  1.44205e+01  2.06659e+01  6.20171e+00
       C  8.36648e+00  8.55006e+00  1.06566e+01
       H  8.18575e+00  9.50715e+00  1.01498e+01
       H  7.91464e+00  7.73532e+00  1.00750e+01
       H  7.91837e+00  8.57663e+00  1.16594e+01
       H  9.44843e+00  8.38340e+00  1.07432e+01
       C  1.30036e+01  2.04070e+01  9.58790e+00
       H  1.27018e+01  2.13353e+01  9.08419e+00
       H  1.21101e+01  1.98635e+01  9.92301e+00
       H  1.36327e+01  2.06493e+01  1.04551e+01
       H  1.35702e+01  1.97786e+01  8.88779e+00
       C  1.64285e+00  1.66151e+01  5.11481e+00
       H  2.42381e+00  1.69162e+01  4.40653e+00
       H  1.04209e+00  1.74916e+01  5.39455e+00
       H  2.10773e+00  1.61927e+01  6.01642e+00
       H  9.97409e-01  1.58606e+01  4.64576e+00
       C  6.79369e+00  5.89238e+00  6.76890e+00
       H  6.57629e+00  5.23137e+00  5.92090e+00
       H  7.63110e+00  6.55426e+00  6.50829e+00
       H  7.06059e+00  5.28029e+00  7.64135e+00
       H  5.90750e+00  6.49842e+00  7.00471e+00
       C  2.35821e+01  1.99191e+01  2.91200e+00
       H  2.26252e+01  1.99004e+01  2.36834e+00
       H  2.36154e+01  2.07829e+01  3.58969e+00
       H  2.44137e+01  1.99980e+01  2.20269e+00
       H  2.36828e+01  1.89899e+01  3.48802e+00
       C  2.23539e+01  2.04997e+01  6.81161e+00
       H  2.32343e+01  2.09958e+01  7.24146e+00
       H  2.14459e+01  2.10507e+01  7.09127e+00
       H  2.22872e+01  1.94715e+01  7.19409e+00
       H  2.24466e+01  2.04777e+01  5.71867e+00
       C  2.24723e+01 -2.20925e-01  1.01259e+01
       H  2.27641e+01  7.97883e-01  9.83920e+00
       H  2.33380e+01 -7.41664e-01  1.05585e+01
       H  2.21224e+01 -7.65931e-01  9.23868e+00
       H  2.16649e+01 -1.72486e-01  1.08684e+01
       C  5.92470e+00  9.94133e+00  1.90051e+01
       H  5.79607e+00  1.02301e+01  1.79535e+01
       H  6.94851e+00  9.57630e+00  1.91631e+01
       H  5.20934e+00  9.14868e+00  1.92603e+01
       H  5.74533e+00  1.08136e+01  1.96490e+01
       C  2.95749e+00  2.12756e+01  1.19371e+01
       H  2.68630e+00  2.22402e+01  1.14888e+01
       H  2.10649e+00  2.08897e+01  1.25144e+01
       H  3.82080e+00  2.14098e+01  1.26016e+01
       H  3.21516e+00  2.05633e+01  1.11421e+01
       C  1.50504e+01  1.76400e+01  6.58817e-01
       H  1.59886e+01  1.81430e+01  9.27670e-01
       H  1.45236e+01  1.73275e+01  1.57384e+00
       H  1.52692e+01  1.67540e+01  4.96863e-02
       H  1.44177e+01  1.83267e+01  8.43161e-02
       C  1.55491e+01  2.04548e+01  2.54531e+00
       H  1.56460e+01  2.14830e+01  2.91817e+00
       H  1.48843e+01  2.04450e+01  1.67164e+00
       H  1.51241e+01  1.98174e+01  3.33291e+00
       H  1.65390e+01  2.00734e+01  2.26116e+00
       C  2.27165e+01  1.78748e+01  2.18943e+01
       H  2.25600e+01  1.86649e+01  2.11473e+01
       H  2.36211e+01  1.73067e+01  2.16393e+01
       H  2.18470e+01  1.72039e+01  2.19050e+01
       H  2.28408e+01  1.83314e+01  2.28863e+01
       C  1.72945e+01  2.36609e+01  1.74627e+01
       H  1.68469e+01  2.26805e+01  1.76737e+01
       H  1.67504e+01  2.41447e+01  1.66400e+01
       H  1.83465e+01  2.35291e+01  1.71753e+01
       H  1.72366e+01  2.42892e+01  1.83622e+01
       C  2.42013e+00  2.29362e+01  1.51605e+01
       H  2.51416e+00  2.37572e+01  1.58840e+01
       H  3.16184e+00  2.30690e+01  1.43614e+01
       H  1.41027e+00  2.29412e+01  1.47288e+01
       H  2.59464e+00  2.19772e+01  1.56676e+01
       C  2.09497e+01  1.49953e+01  1.50282e+01
       H  2.15896e+01  1.58034e+01  1.54032e+01
       H  2.03466e+01  1.53720e+01  1.41906e+01
       H  2.02859e+01  1.46476e+01  1.58322e+01
       H  2.15717e+01  1.41592e+01  1.46839e+01
       C  2.11118e+01  8.16624e+00  1.15353e+01
       H  2.09642e+01  9.00061e+00  1.22355e+01
       H  2.21352e+01  7.77901e+00  1.16361e+01
       H  2.09538e+01  8.51876e+00  1.05082e+01
       H  2.03927e+01  7.36853e+00  1.17624e+01
       C  1.16931e+01  8.87706e+00  8.95017e+00
       H  1.06674e+01  8.86695e+00  8.55667e+00
       H  1.18933e+01  7.93188e+00  9.47233e+00
       H  1.18063e+01  9.71618e+00  9.64976e+00
       H  1.24046e+01  8.99603e+00  8.12214e+00
       C  4.24213e+00  2.80637e+00  3.40467e+00
       H  3.65019e+00  2.73742e+00  2.48230e+00
       H  3.67239e+00  3.35952e+00  4.16378e+00
       H  5.18407e+00  3.33229e+00  3.19791e+00
       H  4.46124e+00  1.79626e+00  3.77549e+00
       C  1.39633e+01  1.76681e+00  7.27100e+00
       H  1.40048e+01  9.23493e-01  7.97407e+00
       H  1.30217e+01  1.72305e+00  6.70797e+00
       H  1.48115e+01  1.70516e+00  6.57651e+00
       H  1.40140e+01  2.71127e+00  7.82925e+00
       C  1.94447e+01  1.86385e+01  7.75668e+00
       H  1.99689e+01  1.86137e+01  6.79609e+00
       H  1.84352e+01  1.82164e+01  7.63775e+00
       H  1.93733e+01  1.96766e+01  8.10383e+00
       H  2.00065e+01  1.80496e+01  8.49692e+00
       C  2.19847e+01  1.60840e+00  7.00986e+00
       H  2.29799e+01  1.14336e+00  7.02572e+00
       H  2.20367e+01  2.60341e+00  7.47150e+00
       H  2.12843e+01  9.80321e-01  7.57516e+00
       H  2.16405e+01  1.70514e+00  5.97126e+00
       C  2.04752e+01  2.21944e+01  3.86470e+00
       H  2.05133e+01  2.19468e+01  4.93382e+00
       H  1.99802e+01  2.31655e+01  3.72990e+00
       H  1.99092e+01  2.14190e+01  3.33250e+00
       H  2.14957e+01  2.22449e+01  3.46262e+00
       C  1.65918e+01  8.46445e+00  1.33588e+01
       H  1.76392e+01  8.71458e+00  1.35722e+01
       H  1.60524e+01  8.30462e+00  1.43033e+01
       H  1.65489e+01  7.54829e+00  1.27545e+01
       H  1.61258e+01  9.29199e+00  1.28073e+01
       C  2.22694e+01  1.62800e+01  7.40317e+00
       H  2.19456e+01  1.56653e+01  8.25019e+00
       H  2.29660e+01  1.70556e+01  7.75089e+00
       H  2.13921e+01  1.67543e+01  6.94046e+00
       H  2.27671e+01  1.56477e+01  6.65896e+00
       C  2.21017e+00  2.03921e+01  2.03730e+01
       H  3.09022e+00  1.98169e+01  2.06926e+01
       H  1.65979e+00  1.98279e+01  1.96074e+01
       H  2.53478e+00  2.13547e+01  1.99555e+01
       H  1.55602e+00  2.05701e+01  2.12370e+01
       C  5.63199e+00  1.24724e+01  4.17493e-01
       H  5.64378e+00  1.28617e+01  1.44398e+00
       H  6.51894e+00  1.18467e+01  2.51813e-01
       H  5.64210e+00  1.33118e+01 -2.89879e-01
       H  4.72613e+00  1.18689e+01  2.65764e-01
       C  1.00140e+01  1.22906e+01  1.11843e+00
       H  9.11377e+00  1.16654e+01  1.05599e+00
       H  1.00385e+01  1.28010e+01  2.08970e+00
       H  9.99473e+00  1.30383e+01  3.14217e-01
       H  1.09095e+01  1.16605e+01  1.01300e+00
       C  8.65057e+00  1.81506e+01  1.43931e+01
       H  9.42622e+00  1.83578e+01  1.36433e+01
       H  7.80044e+00  1.88262e+01  1.42348e+01
       H  9.06207e+00  1.83104e+01  1.53986e+01
       H  8.31601e+00  1.71093e+01  1.42928e+01
       C  8.27562e+00  1.17152e+01  2.09736e+01
       H  8.29145e+00  1.15286e+01  1.98916e+01
       H  9.30587e+00  1.17935e+01  2.13450e+01
       H  7.76515e+00  1.08864e+01  2.14829e+01
       H  7.74078e+00  1.26541e+01  2.11729e+01
       C  2.21192e+01  1.07287e+01  4.23689e+00
       H  2.30376e+01  1.13241e+01  4.14406e+00
       H  2.22942e+01  9.89087e+00  4.92526e+00
       H  2.18336e+01  1.03394e+01  3.25034e+00
       H  2.13105e+01  1.13614e+01  4.62753e+00
       C  2.31699e+01  1.28009e+01  7.05478e+00
       H  2.23954e+01  1.31248e+01  6.34664e+00
       H  2.41479e+01  1.27927e+01  6.55164e+00
       H  2.29366e+01  1.17912e+01  7.41567e+00
       H  2.31994e+01  1.34937e+01  7.90530e+00
       C  2.79899e+00  1.49867e+01  1.11826e+01
       H  2.77632e+00  1.59733e+01  1.16645e+01
       H  3.03118e+00  1.42188e+01  1.19326e+01
       H  3.56715e+00  1.49778e+01  1.03978e+01
       H  1.81831e+00  1.47760e+01  1.07341e+01
       C  1.82710e+01  1.67447e+01  2.18531e+01
       H  1.78988e+01  1.68716e+01  2.28786e+01
       H  1.93393e+01  1.69979e+01  2.18153e+01
       H  1.77137e+01  1.74069e+01  2.11763e+01
       H  1.81322e+01  1.57000e+01  2.15467e+01
       C  6.32277e+00  3.87619e+00  1.25054e+01
       H  6.51716e+00  4.95366e+00  1.25945e+01
       H  7.26035e+00  3.35308e+00  1.22746e+01
       H  5.59579e+00  3.70140e+00  1.17008e+01
       H  5.91774e+00  3.49526e+00  1.34529e+01
       C  4.12750e+00  4.35857e+00  8.24558e+00
       H  3.40135e+00  5.16198e+00  8.06377e+00
       H  4.65617e+00  4.12911e+00  7.31036e+00
       H  3.60056e+00  3.46128e+00  8.59410e+00
       H  4.84912e+00  4.68052e+00  9.00883e+00
       C  1.08971e+01  1.21639e+01  8.29689e+00
       H  9.88642e+00  1.17375e+01  8.34396e+00
       H  1.08399e+01  1.32196e+01  7.99833e+00
       H  1.14894e+01  1.16012e+01  7.56328e+00
       H  1.13757e+01  1.20957e+01  9.28306e+00
       C  4.00711e+00  3.66775e+00  1.98316e+01
       H  4.39474e+00  4.35151e+00  2.05991e+01
       H  4.52368e+00  3.85209e+00  1.88799e+01
       H  2.93001e+00  3.83814e+00  1.97042e+01
       H  4.17769e+00  2.62867e+00  2.01439e+01
       C  1.66420e+01  2.09895e+01  2.21807e+01
       H  1.68629e+01  2.15632e+01  2.30909e+01
       H  1.74678e+01  2.02944e+01  2.19772e+01
       H  1.65219e+01  2.16804e+01  2.13354e+01
       H  1.57142e+01  2.04192e+01  2.23180e+01
       C  1.63031e+01  1.98986e+01  1.23417e+01
       H  1.65876e+01  1.97072e+01  1.33847e+01
       H  1.53911e+01  1.93378e+01  1.21007e+01
       H  1.71167e+01  1.95819e+01  1.16770e+01
       H  1.61217e+01  2.09715e+01  1.22001e+01
       C  1.92573e+01  4.77097e+00  1.78066e+01
       H  1.84121e+01  4.07857e+00  1.76847e+01
       H  2.01217e+01  4.22722e+00  1.82127e+01
       H  1.89737e+01  5.57757e+00  1.84948e+01
       H  1.95203e+01  5.20185e+00  1.68324e+01
       C  1.05579e+01  6.32339e+00  1.74658e+01
       H  9.53725e+00  6.55626e+00  1.71348e+01
       H  1.05234e+01  5.56179e+00  1.82562e+01
       H  1.10310e+01  7.23492e+00  1.78567e+01
       H  1.11406e+01  5.94404e+00  1.66158e+01
       C  4.33843e+00  6.93007e+00  1.72736e+01
       H  3.78722e+00  6.65828e+00  1.63636e+01
       H  4.84613e+00  6.04227e+00  1.76741e+01
       H  3.63528e+00  7.32210e+00  1.80207e+01
       H  5.08470e+00  7.69971e+00  1.70342e+01
       C  1.33315e+01  8.73640e+00  1.20300e+01
       H  1.22942e+01  8.44810e+00  1.18243e+01
       H  1.33662e+01  9.79433e+00  1.23234e+01
       H  1.39408e+01  8.59221e+00  1.11297e+01
       H  1.37283e+01  8.10880e+00  1.28442e+01
       C  4.02324e+00  2.14931e+01  5.91417e-01
       H  3.48289e+00  2.05370e+01  6.07072e-01
       H  3.81932e+00  2.20118e+01 -3.55152e-01
       H  5.10216e+00  2.13065e+01  6.81394e-01
       H  3.68877e+00  2.21177e+01  1.43112e+00
       C  1.40256e+00  3.67431e+00  6.24497e+00
       H  2.12558e+00  4.36638e+00  5.79214e+00
       H  9.21079e-01  4.16219e+00  7.10216e+00
       H  1.92250e+00  2.76743e+00  6.58215e+00
       H  6.38118e-01  3.40260e+00  5.50419e+00
       C  1.82084e+01  1.68792e+01  1.14394e+01
       H  1.85831e+01  1.78633e+01  1.17430e+01
       H  1.71099e+01  1.68844e+01  1.14400e+01
       H  1.85686e+01  1.61233e+01  1.21497e+01
       H  1.85743e+01  1.66432e+01  1.04299e+01
       C  1.45141e+01  1.74455e+01  2.01748e+01
       H  1.35907e+01  1.77222e+01  2.07020e+01
       H  1.46954e+01  1.81516e+01  1.93537e+01
       H  1.44141e+01  1.64294e+01  1.97697e+01
       H  1.53588e+01  1.74774e+01  2.08753e+01
       C  2.71793e+00  9.23836e+00  6.22042e+00
       H  2.90167e+00  1.00509e+01  6.93615e+00
       H  2.45437e+00  8.32188e+00  6.76576e+00
       H  3.62445e+00  9.06176e+00  5.62602e+00
       H  1.89089e+00  9.51988e+00  5.55451e+00
       C  9.96703e+00  1.39212e+00  3.65828e+00
       H  9.23412e+00  2.13350e+00  3.30630e+00
       H  1.07686e+01  1.29448e+00  2.91507e+00
       H  9.46412e+00  4.24883e-01  3.79380e+00
       H  1.03919e+01  1.72180e+00  4.61513e+00
       C  1.33785e+00  1.28048e+00  1.86612e+01
       H  6.97611e-01  1.16422e+00  1.77762e+01
       H  1.37416e+00  3.31651e-01  1.92132e+01
       H  9.27632e-01  2.06683e+00  1.93094e+01
       H  2.35198e+00  1.55909e+00  1.83440e+01
       C  8.57451e+00  1.06295e+01  1.55557e+01