LAMMPS data file. CGCMM style. atom_style full generated by VMD/TopoTools v1.5 on Wed Nov 30 12:14:08 GMT 2016
 4000 atoms
 3200 bonds
 4800 angles
 0 dihedrals
 0 impropers
 2 atom types
 1 bond types
 1 angle types
 0 dihedral types
 0 improper types
 0.0 36.72  xlo xhi
 0.0 36.72  ylo yhi
 0.0 36.72  zlo zhi

# Pair Coeffs
#
# 1  CT
# 2  HC

# Bond Coeffs
#
# 1  CT-HC

# Angle Coeffs
#
# 1  HC-CT-HC

 Masses

 1 12.011000 # CT
 2 1.008000 # HC

 Atoms

1 1 1 -0.240000 10.209882 27.367919 4.996929 # CT
2 1 2 0.060000 10.819489 27.937540 4.298464 # HC
3 1 2 0.060000 9.642638 26.615300 4.453088 # HC
4 1 2 0.060000 9.523729 28.038621 5.510078 # HC
5 1 2 0.060000 10.853630 26.880216 5.726081 # HC
6 2 1 -0.240000 21.915016 32.140399 3.967711 # CT
7 2 2 0.060000 21.961766 31.393964 4.758022 # HC
8 2 2 0.060000 22.707991 32.871407 4.111867 # HC
9 2 2 0.060000 20.949698 32.641563 3.998789 # HC
10 2 2 0.060000 22.040600 31.654702 3.002178 # HC
11 3 1 -0.240000 9.128950 22.485224 23.015358 # CT
12 3 2 0.060000 9.335982 23.249688 23.761464 # HC
13 3 2 0.060000 10.066793 22.107490 22.613203 # HC
14 3 2 0.060000 8.536147 22.915053 22.210496 # HC
15 3 2 0.060000 8.576887 21.668674 23.476228 # HC
16 4 1 -0.240000 33.228124 14.735121 27.602561 # CT
17 4 2 0.060000 33.709474 14.095215 28.339287 # HC
18 4 2 0.060000 32.229485 14.357966 27.391765 # HC
19 4 2 0.060000 33.815272 14.738826 26.686475 # HC
20 4 2 0.060000 33.158259 15.748459 27.992680 # HC
21 5 1 -0.240000 29.942576 25.321921 34.023041 # CT
22 5 2 0.060000 30.507089 26.248172 33.937444 # HC
23 5 2 0.060000 29.452011 25.107293 33.075812 # HC
24 5 2 0.060000 29.192652 25.425126 34.804662 # HC
25 5 2 0.060000 30.618511 24.507097 34.274242 # HC
26 6 1 -0.240000 6.594337 8.366492 8.642614 # CT
27 6 2 0.060000 6.764720 7.661127 9.453398 # HC
28 6 2 0.060000 5.535464 8.382899 8.392654 # HC
29 6 2 0.060000 7.168311 8.061554 7.769953 # HC
30 6 2 0.060000 6.908842 9.360371 8.954412 # HC
31 7 1 -0.240000 35.494303 26.596767 20.418797 # CT
32 7 2 0.060000 35.725853 25.903865 21.225155 # HC
33 7 2 0.060000 34.713208 26.173886 19.790288 # HC
34 7 2 0.060000 36.387090 26.769180 19.821156 # HC
35 7 2 0.060000 35.151070 27.540126 20.838551 # HC
36 8 1 -0.240000 18.075392 4.512946 3.512861 # CT
37 8 2 0.060000 19.070826 4.944477 3.430203 # HC
38 8 2 0.060000 17.332141 5.262136 3.247804 # HC
39 8 2 0.060000 17.907539 4.181496 4.535571 # HC
40 8 2 0.060000 17.991035 3.663692 2.837896 # HC
41 9 1 -0.240000 22.518334 33.204615 12.025078 # CT
42 9 2 0.060000 22.094734 34.034333 11.462875 # HC
43 9 2 0.060000 22.585648 32.328496 11.383325 # HC
44 9 2 0.060000 21.880631 32.981311 12.877979 # HC
45 9 2 0.060000 23.512296 33.474285 12.376141 # HC
46 10 1 -0.240000 18.728707 10.799033 10.679051 # CT
47 10 2 0.060000 17.921648 10.876865 9.953421 # HC
48 10 2 0.060000 18.315481 10.560310 11.656915 # HC
49 10 2 0.060000 19.261548 11.746270 10.731892 # HC
50 10 2 0.060000 19.416152 10.012716 10.374006 # HC
51 11 1 -0.240000 0.868310 28.176657 4.991824 # CT
52 11 2 0.060000 1.522640 27.780483 5.765672 # HC
53 11 2 0.060000 0.543229 27.366676 4.342042 # HC
54 11 2 0.060000 1.407458 28.917901 4.405440 # HC
55 11 2 0.060000 -0.000072 28.641564 5.454103 # HC
56 12 1 -0.240000 8.079248 24.308220 31.537192 # CT
57 12 2 0.060000 7.947703 23.888039 32.532222 # HC
58 12 2 0.060000 8.022419 25.393485 31.591343 # HC
59 12 2 0.060000 7.295830 23.936357 30.879968 # HC
60 12 2 0.060000 9.051008 24.015019 31.145218 # HC
61 13 1 -0.240000 33.207143 23.500116 21.205817 # CT
62 13 2 0.060000 32.768300 24.491273 21.300508 # HC
63 13 2 0.060000 32.891897 22.882274 22.044180 # HC
64 13 2 0.060000 34.292120 23.582518 21.203798 # HC
65 13 2 0.060000 32.876282 23.044389 20.274812 # HC
66 14 1 -0.240000 30.509368 15.263832 22.277790 # CT
67 14 2 0.060000 29.836142 15.366482 21.429161 # HC
68 14 2 0.060000 30.944920 14.266709 22.276695 # HC
69 14 2 0.060000 29.954622 15.416277 23.201363 # HC
70 14 2 0.060000 31.301778 16.005833 22.203971 # HC
71 15 1 -0.240000 9.053120 12.627585 7.115573 # CT
72 15 2 0.060000 9.629637 13.371840 6.569997 # HC
73 15 2 0.060000 8.094402 13.052628 7.405676 # HC
74 15 2 0.060000 9.600624 12.326135 8.006268 # HC
75 15 2 0.060000 8.887810 11.759745 6.480393 # HC
76 16 1 -0.240000 34.917685 30.630380 24.526174 # CT
77 16 2 0.060000 35.095014 31.312910 23.697531 # HC
78 16 2 0.060000 34.027715 30.942345 25.068938 # HC
79 16 2 0.060000 35.774597 30.643497 25.196621 # HC
80 16 2 0.060000 34.773417 29.622783 24.141643 # HC
81 17 1 -0.240000 13.956295 9.886078 13.059722 # CT
82 17 2 0.060000 13.548377 10.303230 13.978160 # HC
83 17 2 0.060000 14.604661 10.619603 12.584828 # HC
84 17 2 0.060000 13.142195 9.630524 12.384517 # HC
85 17 2 0.060000 14.529936 8.990973 13.291347 # HC
86 18 1 -0.240000 21.699628 15.620000 23.579960 # CT
87 18 2 0.060000 21.229518 16.153533 22.756383 # HC
88 18 2 0.060000 20.955789 15.404958 24.344435 # HC
89 18 2 0.060000 22.490268 16.234385 24.005859 # HC
90 18 2 0.060000 22.122940 14.687143 23.213201 # HC
91 19 1 -0.240000 8.563131 5.559021 35.417059 # CT
92 19 2 0.060000 9.328168 6.228624 35.804734 # HC
93 19 2 0.060000 8.958450 4.546467 35.367860 # HC
94 19 2 0.060000 8.269170 5.882418 34.420580 # HC
95 19 2 0.060000 7.696745 5.578555 36.075027 # HC
96 20 1 -0.240000 26.399914 1.743180 26.543984 # CT
97 20 2 0.060000 25.939596 2.340765 25.759803 # HC
98 20 2 0.060000 25.685571 1.005945 26.904762 # HC
99 20 2 0.060000 26.698689 2.391031 27.365564 # HC
100 20 2 0.060000 27.275786 1.234983 26.145848 # HC
101 21 1 -0.240000 5.478748 28.932028 33.166965 # CT
102 21 2 0.060000 6.046922 29.344950 32.335932 # HC
103 21 2 0.060000 5.096061 29.743059 33.783197 # HC
104 21 2 0.060000 6.124972 28.294512 33.766912 # HC
105 21 2 0.060000 4.647051 28.345598 32.781856 # HC
106 22 1 -0.240000 11.872310 17.531523 17.600943 # CT
107 22 2 0.060000 12.494212 16.838815 18.164268 # HC
108 22 2 0.060000 12.478457 18.035470 16.850886 # HC
109 22 2 0.060000 11.445880 18.268954 18.277939 # HC
110 22 2 0.060000 11.070699 16.982894 17.110684 # HC
111 23 1 -0.240000 17.730668 14.296135 32.601403 # CT
112 23 2 0.060000 17.068210 15.051380 33.019368 # HC
113 23 2 0.060000 17.874708 13.498304 33.327131 # HC
114 23 2 0.060000 18.691540 14.747983 32.363650 # HC
115 23 2 0.060000 17.288251 13.886865 31.695482 # HC
116 24 1 -0.240000 7.993951 16.670105 26.758871 # CT
117 24 2 0.060000 8.937581 16.323805 27.175500 # HC
118 24 2 0.060000 7.229971 15.910283 26.910418 # HC
119 24 2 0.060000 8.114304 16.855996 25.693540 # HC
120 24 2 0.060000 7.693933 17.590315 27.255992 # HC
121 25 1 -0.240000 3.993861 13.797279 10.312329 # CT
122 25 2 0.060000 4.524523 14.188342 11.178012 # HC
123 25 2 0.060000 4.662888 13.165327 9.731811 # HC
124 25 2 0.060000 3.648761 14.623878 9.694582 # HC
125 25 2 0.060000 3.139284 13.211583 10.644872 # HC
126 26 1 -0.240000 35.706839 32.370273 12.943739 # CT
127 26 2 0.060000 34.722204 32.647313 12.572681 # HC
128 26 2 0.060000 36.086722 31.527403 12.369960 # HC
129 26 2 0.060000 35.633775 32.091316 13.992936 # HC
130 26 2 0.060000 36.384660 33.215021 12.839397 # HC
131 27 1 -0.240000 9.033016 4.952018 5.748402 # CT
132 27 2 0.060000 9.269652 5.354777 6.731118 # HC
133 27 2 0.060000 8.511597 5.706661 5.163083 # HC
134 27 2 0.060000 8.397511 4.075732 5.858975 # HC
135 27 2 0.060000 9.953264 4.670897 5.240423 # HC
136 28 1 -0.240000 35.891639 1.262713 31.697734 # CT
137 28 2 0.060000 36.232901 2.291251 31.795671 # HC
138 28 2 0.060000 35.092882 1.214240 30.960441 # HC
139 28 2 0.060000 35.520578 0.910677 32.658126 # HC
140 28 2 0.060000 36.720155 0.634676 31.376708 # HC
141 29 1 -0.240000 5.067336 17.541575 13.687780 # CT
142 29 2 0.060000 4.563978 17.108803 14.549917 # HC
143 29 2 0.060000 4.489985 18.385970 13.316803 # HC
144 29 2 0.060000 5.156047 16.790974 12.905029 # HC
145 29 2 0.060000 6.059314 17.880549 13.979333 # HC
146 30 1 -0.240000 4.612661 9.809443 17.176015 # CT
147 30 2 0.060000 4.684868 10.649845 17.863367 # HC
148 30 2 0.060000 5.439315 9.846699 16.469463 # HC
149 30 2 0.060000 3.670250 9.863466 16.634800 # HC
150 30 2 0.060000 4.656202 8.877772 17.736390 # HC
151 31 1 -0.240000 30.278732 27.218493 1.888311 # CT
152 31 2 0.060000 30.905473 26.331912 1.959805 # HC
153 31 2 0.060000 29.533673 27.200865 2.681116 # HC
154 31 2 0.060000 29.779440 27.232721 0.921629 # HC
155 31 2 0.060000 30.896301 28.108468 1.990687 # HC
156 32 1 -0.240000 21.697973 9.827450 17.324661 # CT
157 32 2 0.060000 22.130314 8.968932 16.814788 # HC
158 32 2 0.060000 21.170210 10.449171 16.604321 # HC
159 32 2 0.060000 22.490203 10.407912 17.793070 # HC
160 32 2 0.060000 21.001182 9.483823 18.086456 # HC
161 33 1 -0.240000 16.153248 19.193490 16.415608 # CT
162 33 2 0.060000 15.651182 19.250629 17.379250 # HC
163 33 2 0.060000 16.106839 18.172438 16.042431 # HC
164 33 2 0.060000 17.193646 19.490713 16.530498 # HC
165 33 2 0.060000 15.661361 19.860157 15.710250 # HC
166 34 1 -0.240000 27.068365 0.851494 30.458219 # CT
167 34 2 0.060000 26.576273 0.682223 31.413800 # HC
168 34 2 0.060000 28.137941 0.972404 30.617438 # HC
169 34 2 0.060000 26.666227 1.751523 29.997564 # HC
170 34 2 0.060000 26.893036 -0.000137 29.804069 # HC
171 35 1 -0.240000 11.270975 13.627555 22.629161 # CT
172 35 2 0.060000 10.952062 12.852745 23.323355 # HC
173 35 2 0.060000 11.150213 13.271706 21.608009 # HC
174 35 2 0.060000 12.317160 13.866957 22.808476 # HC
175 35 2 0.060000 10.664499 14.518803 22.776778 # HC
176 36 1 -0.240000 4.168125 6.982901 10.153007 # CT
177 36 2 0.060000 3.306300 6.369582 10.408033 # HC
178 36 2 0.060000 4.308990 7.745711 10.916054 # HC
179 36 2 0.060000 4.001287 7.460170 9.189498 # HC
180 36 2 0.060000 5.055916 6.356182 10.098434 # HC
181 37 1 -0.240000 10.399393 19.082711 28.440593 # CT
182 37 2 0.060000 9.966925 20.043274 28.713046 # HC
183 37 2 0.060000 11.435391 19.223748 28.139296 # HC
184 37 2 0.060000 9.836708 18.652858 27.614408 # HC
185 37 2 0.060000 10.358560 18.410956 29.295583 # HC
186 38 1 -0.240000 7.163855 18.932302 9.033311 # CT
187 38 2 0.060000 7.944362 19.037809 9.784056 # HC
188 38 2 0.060000 7.596913 18.550278 8.111096 # HC
189 38 2 0.060000 6.707907 19.902225 8.845343 # HC
190 38 2 0.060000 6.406240 18.238922 9.392715 # HC
191 39 1 -0.240000 10.547542 3.718747 20.151821 # CT
192 39 2 0.060000 10.051385 4.677808 20.017765 # HC
193 39 2 0.060000 11.089278 3.719413 21.095475 # HC
194 39 2 0.060000 11.245160 3.553732 19.333244 # HC
195 39 2 0.060000 9.804386 2.924035 20.160799 # HC
196 40 1 -0.240000 5.675020 33.915120 29.378634 # CT
197 40 2 0.060000 5.474376 34.379754 30.341857 # HC
198 40 2 0.060000 6.734516 34.003392 29.147034 # HC
199 40 2 0.060000 5.092288 34.413947 28.606905 # HC
200 40 2 0.060000 5.398914 32.863413 29.418707 # HC
201 41 1 -0.240000 14.071810 14.335288 20.967016 # CT
202 41 2 0.060000 13.846320 13.909624 19.991359 # HC
203 41 2 0.060000 14.693656 13.642335 21.530119 # HC
204 41 2 0.060000 13.144753 14.512757 21.508347 # HC
205 41 2 0.060000 14.602496 15.276418 20.838271 # HC
206 42 1 -0.240000 32.101078 13.733699 31.206662 # CT
207 42 2 0.060000 32.467209 13.502417 30.208464 # HC
208 42 2 0.060000 32.433366 14.729412 31.493199 # HC
209 42 2 0.060000 32.490208 13.003999 31.913829 # HC
210 42 2 0.060000 31.013557 13.698974 31.211185 # HC
211 43 1 -0.240000 8.893241 32.050017 5.950453 # CT
212 43 2 0.060000 9.486623 32.931637 6.184085 # HC
213 43 2 0.060000 8.769291 31.447883 6.848247 # HC
214 43 2 0.060000 9.400474 31.463199 5.187348 # HC
215 43 2 0.060000 7.916593 32.357310 5.582135 # HC
216 44 1 -0.240000 3.295308 33.708155 1.697557 # CT
217 44 2 0.060000 3.354281 34.711472 2.114473 # HC
218 44 2 0.060000 2.847503 33.752795 0.706880 # HC
219 44 2 0.060000 2.683787 33.082080 2.344118 # HC
220 44 2 0.060000 4.295623 33.286258 1.624749 # HC
221 45 1 -0.240000 2.578462 1.212671 34.766512 # CT
222 45 2 0.060000 2.652135 1.383634 35.838559 # HC
223 45 2 0.060000 1.556328 0.939709 34.512157 # HC
224 45 2 0.060000 3.250976 0.406427 34.480740 # HC
225 45 2 0.060000 2.854400 2.120874 34.234579 # HC
226 46 1 -0.240000 26.543401 26.309324 24.111510 # CT
227 46 2 0.060000 26.805241 27.110959 24.799087 # HC
228 46 2 0.060000 27.295158 26.243857 23.327585 # HC
229 46 2 0.060000 25.572266 26.516018 23.666376 # HC
230 46 2 0.060000 26.500929 25.366474 24.652950 # HC
231 47 1 -0.240000 29.590460 23.243166 32.040293 # CT
232 47 2 0.060000 30.138893 22.774491 31.225733 # HC
233 47 2 0.060000 29.618132 24.324388 31.921314 # HC
234 47 2 0.060000 30.047775 22.970904 32.989348 # HC
235 47 2 0.060000 28.557063 22.902906 32.024803 # HC
236 48 1 -0.240000 10.415229 12.796985 9.270820 # CT
237 48 2 0.060000 9.853870 13.659470 9.624284 # HC
238 48 2 0.060000 9.767951 11.922409 9.260361 # HC
239 48 2 0.060000 11.258405 12.616246 9.934414 # HC
240 48 2 0.060000 10.780697 12.989785 8.264247 # HC
241 49 1 -0.240000 23.887213 25.974082 23.025076 # CT
242 49 2 0.060000 24.109801 26.247481 24.054468 # HC
243 49 2 0.060000 23.961921 24.894424 22.912289 # HC
244 49 2 0.060000 24.598605 26.458386 22.359238 # HC
245 49 2 0.060000 22.878556 26.296019 22.774285 # HC
246 50 1 -0.240000 34.593807 21.615797 11.744930 # CT
247 50 2 0.060000 35.023476 21.245863 12.673625 # HC
248 50 2 0.060000 34.025089 20.821037 11.266518 # HC
249 50 2 0.060000 35.391649 21.941364 11.080533 # HC
250 50 2 0.060000 33.935027 22.454908 11.959009 # HC
251 51 1 -0.240000 33.898356 2.677369 4.258291 # CT
252 51 2 0.060000 33.054527 3.177916 4.728766 # HC
253 51 2 0.060000 34.261647 1.886983 4.911951 # HC
254 51 2 0.060000 34.695017 3.397328 4.082340 # HC
255 51 2 0.060000 33.582271 2.247252 3.310126 # HC
256 52 1 -0.240000 27.873977 30.312239 6.470931 # CT
257 52 2 0.060000 27.836735 31.306604 6.911149 # HC
258 52 2 0.060000 28.241318 30.381507 5.449058 # HC
259 52 2 0.060000 26.875913 29.878840 6.468962 # HC
260 52 2 0.060000 28.541917 29.681996 7.054522 # HC
261 53 1 -0.240000 19.091855 26.793336 0.760189 # CT
262 53 2 0.060000 19.678160 26.021623 0.265570 # HC
263 53 2 0.060000 18.088510 26.418971 0.952834 # HC
264 53 2 0.060000 19.034654 27.671467 0.120202 # HC
265 53 2 0.060000 19.566064 27.061298 1.702128 # HC
266 54 1 -0.240000 17.911434 32.662162 30.067711 # CT
267 54 2 0.060000 18.839673 32.363690 30.550649 # HC
268 54 2 0.060000 17.586704 31.876187 29.388921 # HC
269 54 2 0.060000 18.073042 33.581048 29.507801 # HC
270 54 2 0.060000 17.146320 32.827727 30.823433 # HC
271 55 1 -0.240000 14.586027 23.777278 21.731646 # CT
272 55 2 0.060000 14.487259 24.857116 21.641449 # HC
273 55 2 0.060000 13.687555 23.367819 22.188870 # HC
274 55 2 0.060000 15.448209 23.542526 22.352537 # HC
275 55 2 0.060000 14.721088 23.341635 20.743769 # HC
276 56 1 -0.240000 3.738661 31.441454 12.311858 # CT
277 56 2 0.060000 4.110759 30.941634 11.419858 # HC
278 56 2 0.060000 4.555152 31.578989 13.017824 # HC
279 56 2 0.060000 2.961175 30.833841 12.770434 # HC
280 56 2 0.060000 3.327558 32.411332 12.039352 # HC
281 57 1 -0.240000 11.373886 22.972575 17.805886 # CT
282 57 2 0.060000 11.872916 22.509123 16.957285 # HC
283 57 2 0.060000 10.524445 22.361863 18.104955 # HC
284 57 2 0.060000 11.026274 23.964593 17.524753 # HC
285 57 2 0.060000 12.071872 23.054736 18.636544 # HC
286 58 1 -0.240000 6.879139 21.632946 2.287366 # CT
287 58 2 0.060000 7.522983 20.889106 1.822492 # HC
288 58 2 0.060000 6.017470 21.139547 2.732389 # HC
289 58 2 0.060000 6.542007 22.342328 1.534313 # HC
290 58 2 0.060000 7.434057 22.160809 3.060253 # HC
291 59 1 -0.240000 32.976982 7.929793 23.547230 # CT
292 59 2 0.060000 32.173860 7.902659 22.813609 # HC
293 59 2 0.060000 32.567584 7.753691 24.539874 # HC
294 59 2 0.060000 33.458972 8.904981 23.521460 # HC
295 59 2 0.060000 33.707511 7.157873 23.314004 # HC
296 60 1 -0.240000 11.084691 22.846461 13.191022 # CT
297 60 2 0.060000 10.475454 23.022539 14.075199 # HC
298 60 2 0.060000 10.442293 22.572699 12.356551 # HC
299 60 2 0.060000 11.786210 22.038580 13.388933 # HC
300 60 2 0.060000 11.634807 23.751987 12.943389 # HC
301 61 1 -0.240000 11.105697 3.131714 11.178118 # CT
302 61 2 0.060000 11.128892 3.932443 10.441751 # HC
303 61 2 0.060000 12.123602 2.849942 11.439723 # HC
304 61 2 0.060000 10.586743 2.270815 10.761572 # HC
305 61 2 0.060000 10.583567 3.473617 12.069414 # HC
306 62 1 -0.240000 34.034181 29.564234 21.823987 # CT
307 62 2 0.060000 34.334705 30.304043 21.084860 # HC
308 62 2 0.060000 32.956475 29.611004 21.966554 # HC
309 62 2 0.060000 34.534218 29.770845 22.768045 # HC
310 62 2 0.060000 34.311310 28.571058 21.476527 # HC
311 63 1 -0.240000 27.184563 10.769421 32.236033 # CT
312 63 2 0.060000 26.609749 10.117731 32.890885 # HC
313 63 2 0.060000 26.626238 10.945905 31.318924 # HC
314 63 2 0.060000 28.134840 10.296437 31.996805 # HC
315 63 2 0.060000 27.367439 11.717594 32.737483 # HC
316 64 1 -0.240000 26.075741 23.482901 27.187824 # CT
317 64 2 0.060000 26.532539 24.467500 27.264262 # HC
318 64 2 0.060000 25.789265 23.138017 28.179261 # HC
319 64 2 0.060000 26.788513 22.785146 26.753009 # HC
320 64 2 0.060000 25.192668 23.540910 26.554780 # HC
321 65 1 -0.240000 28.135094 35.870086 25.622301 # CT
322 65 2 0.060000 28.110934 36.649698 24.863642 # HC
323 65 2 0.060000 27.268377 35.969785 26.272550 # HC
324 65 2 0.060000 29.044209 35.966289 26.212407 # HC
325 65 2 0.060000 28.116862 34.894585 25.140646 # HC
326 66 1 -0.240000 33.254506 17.047625 25.712439 # CT
327 66 2 0.060000 33.040973 15.993049 25.874346 # HC
328 66 2 0.060000 32.325033 17.581184 25.524400 # HC
329 66 2 0.060000 33.915070 17.156408 24.854657 # HC
330 66 2 0.060000 33.736938 17.459877 26.596315 # HC
331 67 1 -0.240000 27.480664 30.741609 9.084391 # CT
332 67 2 0.060000 27.449527 31.378786 9.965855 # HC
333 67 2 0.060000 27.112246 29.750266 9.340261 # HC
334 67 2 0.060000 28.505703 30.666544 8.727137 # HC
335 67 2 0.060000 26.855207 31.170807 8.304314 # HC
336 68 1 -0.240000 16.546179 21.272599 12.072061 # CT
337 68 2 0.060000 15.585810 21.769159 11.949342 # HC
338 68 2 0.060000 16.533081 20.677623 12.982991 # HC
339 68 2 0.060000 17.334821 22.019375 12.137934 # HC
340 68 2 0.060000 16.731029 20.624251 11.218010 # HC
341 69 1 -0.240000 1.463657 23.903753 1.246800 # CT
342 69 2 0.060000 1.987463 23.728024 0.309417 # HC
343 69 2 0.060000 2.187314 24.007706 2.052701 # HC
344 69 2 0.060000 0.804774 23.063746 1.457109 # HC
345 69 2 0.060000 0.875081 24.815508 1.168004 # HC
346 70 1 -0.240000 18.152253 6.602780 1.840864 # CT
347 70 2 0.060000 18.099558 5.737857 1.182781 # HC
348 70 2 0.060000 19.194468 6.847916 2.034922 # HC
349 70 2 0.060000 17.652316 6.374921 2.780073 # HC
350 70 2 0.060000 17.662688 7.450418 1.365720 # HC
351 71 1 -0.240000 24.103914 3.454296 25.049371 # CT
352 71 2 0.060000 24.177068 2.675461 25.805681 # HC
353 71 2 0.060000 23.172582 3.338790 24.498699 # HC
354 71 2 0.060000 24.943879 3.372900 24.362491 # HC
355 71 2 0.060000 24.122129 4.430022 25.530573 # HC
356 72 1 -0.240000 4.821685 22.149532 34.548142 # CT
357 72 2 0.060000 3.866723 22.198316 34.028904 # HC
358 72 2 0.060000 4.755708 21.430294 35.361965 # HC
359 72 2 0.060000 5.066513 23.130582 34.950100 # HC
360 72 2 0.060000 5.597798 21.838948 33.851641 # HC
361 73 1 -0.240000 30.983143 1.724523 25.485111 # CT
362 73 2 0.060000 30.337257 0.849143 25.507103 # HC
363 73 2 0.060000 30.787882 2.296698 24.580428 # HC
364 73 2 0.060000 32.024023 1.407643 25.496259 # HC
365 73 2 0.060000 30.783437 2.344612 26.356625 # HC
366 74 1 -0.240000 4.135467 10.828389 0.856862 # CT
367 74 2 0.060000 3.764847 11.548174 1.583837 # HC
368 74 2 0.060000 5.127675 11.126712 0.524462 # HC
369 74 2 0.060000 3.461644 10.795392 0.003139 # HC
370 74 2 0.060000 4.187709 9.843291 1.315971 # HC
371 75 1 -0.240000 17.694116 32.402492 17.964302 # CT
372 75 2 0.060000 17.308965 31.828234 18.804437 # HC
373 75 2 0.060000 18.775467 32.292071 17.914814 # HC
374 75 2 0.060000 17.442488 33.452742 18.097074 # HC
375 75 2 0.060000 17.249569 32.036955 17.040890 # HC
376 76 1 -0.240000 26.699203 17.043587 29.372735 # CT
377 76 2 0.060000 27.307604 16.448405 28.694835 # HC
378 76 2 0.060000 25.822026 17.411664 28.844491 # HC
379 76 2 0.060000 27.282416 17.886230 29.738503 # HC
380 76 2 0.060000 26.384764 16.428091 30.213104 # HC
381 77 1 -0.240000 16.882453 32.962229 19.861677 # CT
382 77 2 0.060000 16.230091 33.510862 20.537967 # HC
383 77 2 0.060000 17.399520 33.662495 19.208814 # HC
384 77 2 0.060000 16.288087 32.277126 19.260567 # HC
385 77 2 0.060000 17.612104 32.398433 20.439321 # HC
386 78 1 -0.240000 34.083736 26.178994 6.772431 # CT
387 78 2 0.060000 34.012385 25.366422 7.492553 # HC
388 78 2 0.060000 33.202865 26.175934 6.133667 # HC
389 78 2 0.060000 34.974706 26.045655 6.162216 # HC
390 78 2 0.060000 34.144991 27.127957 7.301247 # HC
391 79 1 -0.240000 4.707943 28.445048 12.088898 # CT
392 79 2 0.060000 4.920973 28.740028 13.114347 # HC
393 79 2 0.060000 4.541833 29.333445 11.482994 # HC
394 79 2 0.060000 3.817134 27.820530 12.068747 # HC
395 79 2 0.060000 5.551794 27.886196 11.689488 # HC
396 80 1 -0.240000 3.009815 2.617144 14.559137 # CT
397 80 2 0.060000 3.287636 1.834858 13.855727 # HC
398 80 2 0.060000 3.828037 2.785221 15.256434 # HC
399 80 2 0.060000 2.121738 2.311972 15.108828 # HC
400 80 2 0.060000 2.801842 3.536514 14.015599 # HC
401 81 1 -0.240000 8.467118 9.471476 3.484708 # CT
402 81 2 0.060000 8.286627 8.661350 4.188313 # HC
403 81 2 0.060000 8.671494 10.389026 4.032698 # HC
404 81 2 0.060000 7.587993 9.610954 2.858885 # HC
405 81 2 0.060000 9.322331 9.224604 2.858934 # HC
406 82 1 -0.240000 27.431569 15.662499 26.802161 # CT
407 82 2 0.060000 27.525944 16.706934 26.512005 # HC
408 82 2 0.060000 28.260864 15.390192 27.451838 # HC
409 82 2 0.060000 27.446927 15.036110 25.912571 # HC
410 82 2 0.060000 26.492569 15.516734 27.332217 # HC
411 83 1 -0.240000 5.648630 10.976266 23.677107 # CT
412 83 2 0.060000 4.910157 11.318688 22.955065 # HC
413 83 2 0.060000 6.327002 11.792503 23.916966 # HC
414 83 2 0.060000 6.213147 10.148076 23.253561 # HC
415 83 2 0.060000 5.144256 10.645797 24.582824 # HC
416 84 1 -0.240000 16.025089 23.393266 23.971116 # CT
417 84 2 0.060000 15.504437 24.344000 23.876422 # HC
418 84 2 0.060000 16.790374 23.473881 24.740403 # HC
419 84 2 0.060000 16.490988 23.138704 23.021323 # HC
420 84 2 0.060000 15.314597 22.616477 24.246304 # HC
421 85 1 -0.240000 13.154727 31.784439 23.286875 # CT
422 85 2 0.060000 12.568467 31.364648 24.101747 # HC
423 85 2 0.060000 12.519456 32.419270 22.672560 # HC
424 85 2 0.060000 13.559003 30.978257 22.678105 # HC
425 85 2 0.060000 13.971971 32.375568 23.695048 # HC
426 86 1 -0.240000 8.291667 21.426588 4.605825 # CT
427 86 2 0.060000 7.824639 20.747737 3.895201 # HC
428 86 2 0.060000 9.364548 21.246599 4.628018 # HC
429 86 2 0.060000 7.874963 21.257433 5.596640 # HC
430 86 2 0.060000 8.102536 22.454568 4.303476 # HC
431 87 1 -0.240000 21.800188 5.133015 22.649286 # CT
432 87 2 0.060000 21.811477 4.951986 21.576420 # HC
433 87 2 0.060000 21.190118 4.376341 23.138389 # HC
434 87 2 0.060000 21.382958 6.118411 22.846475 # HC
435 87 2 0.060000 22.816161 5.085332 23.035878 # HC
436 88 1 -0.240000 33.580650 33.899945 23.600433 # CT
437 88 2 0.060000 33.931478 34.228755 22.624346 # HC
438 88 2 0.060000 33.048542 32.956621 23.495727 # HC
439 88 2 0.060000 32.911020 34.649815 24.016679 # HC
440 88 2 0.060000 34.431518 33.764588 24.264986 # HC
441 89 1 -0.240000 18.908714 9.356343 14.660747 # CT
442 89 2 0.060000 18.585495 9.759012 13.702975 # HC
443 89 2 0.060000 19.904750 8.930606 14.557676 # HC
444 89 2 0.060000 18.214742 8.582063 14.981470 # HC
445 89 2 0.060000 18.929875 10.153649 15.400871 # HC
446 90 1 -0.240000 13.326722 6.291150 19.471924 # CT
447 90 2 0.060000 13.990114 5.441721 19.322521 # HC
448 90 2 0.060000 13.867305 7.089133 19.976856 # HC
449 90 2 0.060000 12.478257 5.985995 20.080987 # HC
450 90 2 0.060000 12.971202 6.647763 18.507372 # HC
451 91 1 -0.240000 18.710353 21.768745 5.408155 # CT
452 91 2 0.060000 19.432273 21.422752 4.671228 # HC
453 91 2 0.060000 18.031671 20.956450 5.660207 # HC
454 91 2 0.060000 18.142871 22.601123 4.996961 # HC
455 91 2 0.060000 19.234557 22.094656 6.304214 # HC
456 92 1 -0.240000 13.100869 17.927440 24.743070 # CT
457 92 2 0.060000 12.527784 17.078270 24.376430 # HC
458 92 2 0.060000 13.295108 17.802029 25.806322 # HC
459 92 2 0.060000 12.535073 18.843032 24.583264 # HC
460 92 2 0.060000 14.045492 17.986456 24.206291 # HC
461 93 1 -0.240000 11.425341 19.027105 26.068440 # CT
462 93 2 0.060000 11.762145 17.993934 26.013119 # HC
463 93 2 0.060000 10.351386 19.068088 25.898425 # HC
464 93 2 0.060000 11.935511 19.616065 25.308952 # HC
465 93 2 0.060000 11.652304 19.430351 27.053228 # HC
466 94 1 -0.240000 2.781270 33.864967 21.338544 # CT
467 94 2 0.060000 3.021688 33.061068 20.645806 # HC
468 94 2 0.060000 3.072060 34.818550 20.902559 # HC
469 94 2 0.060000 3.320406 33.713236 22.271432 # HC
470 94 2 0.060000 1.710959 33.867037 21.534396 # HC
471 95 1 -0.240000 6.059880 9.901558 18.536251 # CT
472 95 2 0.060000 4.999039 9.692205 18.414888 # HC
473 95 2 0.060000 6.625738 8.977626 18.435674 # HC
474 95 2 0.060000 6.234893 10.328607 19.521630 # HC
475 95 2 0.060000 6.379870 10.607780 17.772847 # HC
476 96 1 -0.240000 28.020010 7.463398 15.494166 # CT
477 96 2 0.060000 28.099424 8.234511 14.730608 # HC
478 96 2 0.060000 27.158859 7.667210 16.127287 # HC
479 96 2 0.060000 28.923305 7.459270 16.100805 # HC
480 96 2 0.060000 27.898457 6.492614 15.018003 # HC
481 97 1 -0.240000 2.911985 23.456465 35.756023 # CT
482 97 2 0.060000 3.570808 22.599117 35.634169 # HC
483 97 2 0.060000 2.411718 23.395292 36.720364 # HC
484 97 2 0.060000 2.168717 23.458571 34.961343 # HC
485 97 2 0.060000 3.496657 24.372872 35.708219 # HC
486 98 1 -0.240000 18.748249 19.164945 32.797761 # CT
487 98 2 0.060000 19.164471 19.675243 33.663958 # HC
488 98 2 0.060000 17.667487 19.094939 32.902715 # HC
489 98 2 0.060000 19.171394 18.164922 32.727954 # HC
490 98 2 0.060000 18.989625 19.724638 31.896424 # HC
491 99 1 -0.240000 21.468243 19.910034 1.264061 # CT
492 99 2 0.060000 20.881754 20.318529 2.084490 # HC
493 99 2 0.060000 21.625629 20.680439 0.511953 # HC
494 99 2 0.060000 20.935191 19.072282 0.819093 # HC
495 99 2 0.060000 22.430381 19.568882 1.640671 # HC
496 100 1 -0.240000 17.893040 9.424715 25.366515 # CT
497 100 2 0.060000 17.921009 10.507361 25.261460 # HC
498 100 2 0.060000 16.862875 9.099422 25.496540 # HC
499 100 2 0.060000 18.478967 9.129276 26.234487 # HC
500 100 2 0.060000 18.309296 8.962786 24.473610 # HC
501 101 1 -0.240000 8.084514 3.193596 35.851010 # CT
502 101 2 0.060000 7.948385 2.153233 36.139205 # HC
503 101 2 0.060000 7.267835 3.790744 36.251525 # HC
504 101 2 0.060000 8.092286 3.271277 34.765710 # HC
505 101 2 0.060000 9.029521 3.559145 36.247573 # HC
506 102 1 -0.240000 25.797418 15.236246 25.565642 # CT
507 102 2 0.060000 25.671665 14.673830 26.488581 # HC
508 102 2 0.060000 24.935903 15.073204 24.921304 # HC
509 102 2 0.060000 26.699239 14.901623 25.057002 # HC
510 102 2 0.060000 25.882867 16.296304 25.795646 # HC
511 103 1 -0.240000 23.425809 10.511166 35.639180 # CT
512 103 2 0.060000 23.879850 10.422952 36.624069 # HC
513 103 2 0.060000 23.759037 11.433334 35.167451 # HC
514 103 2 0.060000 22.342416 10.525894 35.739243 # HC
515 103 2 0.060000 23.721905 9.662518 35.025951 # HC
516 104 1 -0.240000 22.435939 11.126143 8.480669 # CT
517 104 2 0.060000 22.345221 10.796941 9.513789 # HC
518 104 2 0.060000 23.344796 11.713247 8.365558 # HC
519 104 2 0.060000 21.574278 11.736229 8.217409 # HC
520 104 2 0.060000 22.479458 10.258198 7.825913 # HC
521 105 1 -0.240000 1.893602 26.286430 3.955009 # CT
522 105 2 0.060000 2.813607 26.857983 4.059214 # HC
523 105 2 0.060000 1.191237 26.839588 3.334797 # HC
524 105 2 0.060000 1.456749 26.119982 4.937569 # HC
525 105 2 0.060000 2.112777 25.328185 3.488473 # HC
526 106 1 -0.240000 12.566496 17.799340 2.735977 # CT
527 106 2 0.060000 13.047603 17.216070 1.953498 # HC
528 106 2 0.060000 13.145787 18.700927 2.924459 # HC
529 106 2 0.060000 12.510307 17.207242 3.647149 # HC
530 106 2 0.060000 11.562308 18.073125 2.418841 # HC
531 107 1 -0.240000 15.166145 6.450410 13.864262 # CT
532 107 2 0.060000 16.201992 6.157222 14.022380 # HC
533 107 2 0.060000 14.832038 7.065383 14.697415 # HC
534 107 2 0.060000 14.543453 5.560583 13.797689 # HC
535 107 2 0.060000 15.087067 7.018439 12.939590 # HC
536 108 1 -0.240000 2.978761 25.917416 1.524626 # CT
537 108 2 0.060000 2.922608 25.771803 2.601467 # HC
538 108 2 0.060000 2.638348 25.016329 1.018539 # HC
539 108 2 0.060000 4.007999 26.126372 1.240061 # HC
540 108 2 0.060000 2.346117 26.755135 1.238417 # HC
541 109 1 -0.240000 16.557698 20.490163 32.747698 # CT
542 109 2 0.060000 15.621852 21.044889 32.767975 # HC
543 109 2 0.060000 16.352396 19.439492 32.553009 # HC
544 109 2 0.060000 17.059270 20.589790 33.708152 # HC
545 109 2 0.060000 17.197283 20.886453 31.961687 # HC
546 110 1 -0.240000 13.774711 33.541085 7.203499 # CT
547 110 2 0.060000 13.547795 33.366062 8.253174 # HC
548 110 2 0.060000 13.503584 32.662046 6.622343 # HC
549 110 2 0.060000 14.839090 33.736627 7.090222 # HC
550 110 2 0.060000 13.208406 34.399582 6.848240 # HC
551 111 1 -0.240000 21.024247 31.541917 33.304516 # CT
552 111 2 0.060000 20.482990 30.601406 33.384656 # HC
553 111 2 0.060000 21.805020 31.576709 34.061579 # HC
554 111 2 0.060000 20.335563 32.370722 33.455403 # HC
555 111 2 0.060000 21.473411 31.618857 32.316457 # HC
556 112 1 -0.240000 35.377429 2.194036 13.543614 # CT
557 112 2 0.060000 35.450328 1.542966 12.674859 # HC
558 112 2 0.060000 35.688307 1.648899 14.432514 # HC
559 112 2 0.060000 34.347974 2.525597 13.663023 # HC
560 112 2 0.060000 36.023080 3.058673 13.404090 # HC
561 113 1 -0.240000 27.177124 30.310654 32.873314 # CT
562 113 2 0.060000 26.332543 30.884711 33.248922 # HC
563 113 2 0.060000 28.038871 30.468843 33.518550 # HC
564 113 2 0.060000 27.416075 30.635899 31.862825 # HC
565 113 2 0.060000 26.921040 29.253185 32.862943 # HC