4002
# CELL(abcABC):   69.39074    69.39074    69.39074    90.00000    90.00000    90.00000  Step:         100  Bead:       0 x_centroid{angstrom}  cell{atomic_unit}
       C  1.17257e+01  2.83529e+01  6.22223e+00
       H  1.17000e+01  2.93804e+01  5.83442e+00
       H  1.12056e+01  2.76858e+01  5.52155e+00
       H  1.12255e+01  2.83170e+01  7.19981e+00
       H  1.27694e+01  2.80281e+01  6.33052e+00
       C  2.15832e+01  3.26111e+01  2.31448e+00
       H  2.19755e+01  3.19991e+01  3.13780e+00
       H  2.22694e+01  3.34466e+01  2.12236e+00
       H  2.05949e+01  3.30044e+01  2.58880e+00
       H  2.14943e+01  3.19961e+01  1.40877e+00
       C  9.05875e+00  2.32059e+01  2.24695e+01
       H  9.63887e+00  2.36125e+01  2.33083e+01
       H  9.70848e+00  2.25872e+01  2.18367e+01
       H  8.63913e+00  2.40291e+01  2.18767e+01
       H  8.24010e+00  2.25866e+01  2.28522e+01
       C  3.37724e+01  1.32094e+01  2.83828e+01
       H  3.45734e+01  1.27763e+01  2.89968e+01
       H  3.28047e+01  1.27961e+01  2.86967e+01
       H  3.39498e+01  1.29661e+01  2.73265e+01
       H  3.37611e+01  1.43002e+01  2.85106e+01
       C  3.04844e+01  2.62827e+01  3.51500e+01
       H  3.05916e+01  2.72199e+01  3.45877e+01
       H  3.02409e+01  2.54671e+01  3.44564e+01
       H  2.96775e+01  2.63848e+01  3.58881e+01
       H  3.14270e+01  2.60558e+01  3.56658e+01
       C  6.43707e+00  8.43412e+00  8.36186e+00
       H  6.51904e+00  7.88337e+00  9.30781e+00
       H  5.39181e+00  8.72788e+00  8.19718e+00
       H  6.77133e+00  7.78909e+00  7.53960e+00
       H  7.06844e+00  9.33214e+00  8.40257e+00
       C  3.66549e+01  2.69825e+01  1.92803e+01
       H  3.66269e+01  2.69594e+01  2.03782e+01
       H  3.59399e+01  2.62500e+01  1.88825e+01
       H  3.76669e+01  2.67330e+01  1.89342e+01
       H  3.63847e+01  2.79871e+01  1.89286e+01
       C  1.85187e+01  4.31550e+00  4.13467e+00
       H  1.95156e+01  4.22582e+00  3.68353e+00
       H  1.80613e+01  5.26593e+00  3.82882e+00
       H  1.86100e+01  4.28885e+00  5.22887e+00
       H  1.78871e+01  3.48129e+00  3.80258e+00
       C  2.22705e+01  3.35192e+01  1.29530e+01
       H  2.24712e+01  3.40338e+01  1.20042e+01
       H  2.20311e+01  3.24657e+01  1.27553e+01
       H  2.14219e+01  3.39975e+01  1.34596e+01
       H  2.31604e+01  3.35810e+01  1.35924e+01
       C  1.88491e+01  1.07021e+01  1.05575e+01
       H  1.80591e+01  1.07589e+01  9.79684e+00
       H  1.83947e+01  1.07343e+01  1.15555e+01
       H  1.95345e+01  1.15527e+01  1.04386e+01
       H  1.94075e+01  9.76376e+00  1.04391e+01
       C  6.32108e-01  2.88278e+01  5.64185e+00
       H  1.64253e+00  2.84073e+01  5.55626e+00
       H  1.71504e-02  2.84804e+01  4.80043e+00
       H  6.89602e-01  2.99238e+01  5.62580e+00
       H  1.79301e-01  2.84963e+01  6.58516e+00
       C  8.45467e+00  2.22511e+01  3.16578e+01
       H  9.01109e+00  2.18143e+01  3.24962e+01
       H  8.06751e+00  2.32380e+01  3.19451e+01
       H  7.61327e+00  2.15964e+01  3.13947e+01
       H  9.12082e+00  2.23565e+01  3.07914e+01
       C  3.35589e+01  2.49185e+01  2.19499e+01
       H  3.31722e+01  2.59171e+01  2.17114e+01
       H  3.28874e+01  2.44261e+01  2.26659e+01
       H  3.45619e+01  2.50068e+01  2.23865e+01
       H  3.36190e+01  2.43170e+01  2.10327e+01
       C  3.07705e+01  1.45433e+01  2.12984e+01
       H  3.07184e+01  1.40710e+01  2.03078e+01
       H  3.07297e+01  1.37686e+01  2.20755e+01
       H  2.99211e+01  1.52292e+01  2.14205e+01
       H  3.17110e+01  1.51019e+01  2.13919e+01
       C  9.44716e+00  1.21615e+01  7.34560e+00
       H  1.03343e+01  1.26410e+01  6.91117e+00
       H  8.85065e+00  1.29113e+01  7.88237e+00
       H  9.75957e+00  1.13739e+01  8.04408e+00
       H  8.84075e+00  1.17176e+01  6.54498e+00
       C  3.59469e+01  3.07920e+01  2.38800e+01
       H  3.61957e+01  3.18001e+01  2.35209e+01
       H  3.51109e+01  3.08491e+01  2.45896e+01
       H  3.68209e+01  3.03561e+01  2.43814e+01
       H  3.56570e+01  3.01604e+01  2.30305e+01
       C  1.26476e+01  9.47356e+00  1.29094e+01
       H  1.19878e+01  1.03174e+01  1.26685e+01
       H  1.35898e+01  9.57620e+00  1.23545e+01
       H  1.21567e+01  8.53356e+00  1.26261e+01
       H  1.28564e+01  9.46692e+00  1.39881e+01
       C  2.11422e+01  1.58686e+01  2.44290e+01
       H  2.06813e+01  1.63711e+01  2.35690e+01
       H  2.03852e+01  1.57085e+01  2.52084e+01
       H  2.19524e+01  1.64955e+01  2.48266e+01
       H  2.15522e+01  1.49001e+01  2.41112e+01
       C  8.19247e+00  6.99754e+00  3.58924e+01
       H  9.10952e+00  7.08265e+00  3.64912e+01
       H  8.22732e+00  6.07239e+00  3.53015e+01
       H  8.11550e+00  7.86011e+00  3.52170e+01
       H  7.31932e+00  6.97421e+00  3.65587e+01
       C  2.59242e+01  5.11537e-01  2.70412e+01
       H  2.58534e+01  3.58665e-01  2.59558e+01
       H  2.52092e+01 -1.46053e-01  2.75517e+01
       H  2.57011e+01  1.56020e+00  2.72771e+01
       H  2.69418e+01  2.73751e-01  2.73789e+01
       C  4.83212e+00  2.85735e+01  3.37504e+01
       H  5.12246e+00  2.87276e+01  3.27033e+01
       H  4.64941e+00  2.95468e+01  3.42266e+01
       H  5.64017e+00  2.80504e+01  3.42774e+01
       H  3.91621e+00  2.79682e+01  3.37921e+01
       C  1.11720e+01  1.66908e+01  1.69691e+01
       H  1.04448e+01  1.63991e+01  1.77380e+01
       H  1.16963e+01  1.57969e+01  1.66051e+01
       H  1.18985e+01  1.73953e+01  1.73979e+01
       H  1.06438e+01  1.71736e+01  1.61369e+01
       C  1.78078e+01  1.36852e+01  3.25726e+01
       H  1.76524e+01  1.46383e+01  3.30962e+01
       H  1.74082e+01  1.28627e+01  3.31805e+01
       H  1.88820e+01  1.35306e+01  3.24042e+01
       H  1.72880e+01  1.37108e+01  3.16064e+01
       C  6.96262e+00  1.66023e+01  2.69314e+01
       H  7.70760e+00  1.62072e+01  2.76353e+01
       H  5.97383e+00  1.66107e+01  2.74086e+01
       H  6.93200e+00  1.59688e+01  2.60349e+01
       H  7.24078e+00  1.76253e+01  2.66469e+01
       C  3.45687e+00  1.41282e+01  1.03828e+01
       H  3.75394e+00  1.47800e+01  1.12156e+01
       H  4.20252e+00  1.33311e+01  1.02585e+01
       H  3.39428e+00  1.47184e+01  9.45864e+00
       H  2.47675e+00  1.36818e+01  1.05991e+01
       C  3.62905e+01  3.32037e+01  1.29285e+01
       H  3.55351e+01  3.39812e+01  1.27501e+01
       H  3.65228e+01  3.26950e+01  1.19830e+01
       H  3.59011e+01  3.24737e+01  1.36513e+01
       H  3.72030e+01  3.36648e+01  1.33302e+01
       C  9.14537e+00  4.87579e+00  5.26658e+00
       H  9.15158e+00  5.44843e+00  6.20326e+00
       H  8.17145e+00  4.98959e+00  4.77297e+00
       H  9.32745e+00  3.81693e+00  5.49246e+00
       H  9.93685e+00  5.24688e+00  4.60088e+00
       C  3.65182e+01  1.24375e+00  3.10391e+01
       H  3.64456e+01  2.30657e+00  3.13057e+01
       H  3.65171e+01  1.13939e+00  2.99459e+01
       H  3.56595e+01  7.01665e-01  3.14580e+01
       H  3.74491e+01  8.25971e-01  3.14461e+01
       C  5.44248e+00  1.71947e+01  1.29713e+01
       H  4.72572e+00  1.66847e+01  1.36292e+01
       H  5.02492e+00  1.81584e+01  1.26510e+01
       H  5.63766e+00  1.65722e+01  1.20878e+01
       H  6.38193e+00  1.73645e+01  1.35146e+01
       C  4.20271e+00  9.57172e+00  1.60889e+01
       H  4.36838e+00  1.06429e+01  1.62662e+01
       H  4.95160e+00  9.19989e+00  1.53765e+01
       H  3.19644e+00  9.42023e+00  1.56751e+01
       H  4.29554e+00  9.02496e+00  1.70370e+01
       C  3.06671e+01  2.64768e+01  2.10852e+00
       H  3.07315e+01  2.55742e+01  1.48730e+00
       H  2.96322e+01  2.66151e+01  2.44906e+00
       H  3.09846e+01  2.73498e+01  1.52202e+00
       H  3.13239e+01  2.63648e+01  2.98026e+00
       C  2.20226e+01  1.00115e+01  1.78265e+01
       H  2.20177e+01  8.91668e+00  1.77447e+01
       H  2.13820e+01  1.04375e+01  1.70440e+01
       H  2.30485e+01  1.03824e+01  1.77024e+01
       H  2.16443e+01  1.03097e+01  1.88130e+01
       C  1.62798e+01  1.82931e+01  1.62887e+01
       H  1.58504e+01  1.86485e+01  1.72345e+01
       H  1.60852e+01  1.72183e+01  1.61780e+01
       H  1.73625e+01  1.84716e+01  1.62873e+01
       H  1.58193e+01  1.88296e+01  1.54492e+01
       C  2.74066e+01  5.11927e-01  3.03108e+01
       H  2.74899e+01  1.32356e-01  3.13381e+01
       H  2.83491e+01  3.36283e-01  2.97745e+01
       H  2.71965e+01  1.58810e+00  3.03377e+01
       H  2.65889e+01 -1.08631e-02  2.97970e+01
       C  1.20046e+01  1.36898e+01  2.34942e+01
       H  1.13613e+01  1.29964e+01  2.40515e+01
       H  1.15812e+01  1.38536e+01  2.24945e+01
       H  1.30108e+01  1.32596e+01  2.34015e+01
       H  1.20649e+01  1.46462e+01  2.40293e+01
       C  3.31995e+00  7.08038e+00  1.00127e+01
       H  2.89455e+00  6.08063e+00  1.01741e+01
       H  2.83503e+00  7.79941e+00  1.06868e+01
       H  3.15422e+00  7.38539e+00  8.97055e+00
       H  4.39799e+00  7.05623e+00  1.02201e+01
       C  9.39607e+00  1.87744e+01  2.85884e+01
       H  9.64795e+00  1.96410e+01  2.92141e+01
       H  1.02833e+01  1.81403e+01  2.84624e+01
       H  9.05052e+00  1.91220e+01  2.76061e+01
       H  8.60115e+00  1.81901e+01  2.90711e+01
       C  7.23615e+00  1.86290e+01  8.33615e+00
       H  8.30094e+00  1.85272e+01  8.58617e+00
       H  7.06776e+00  1.83012e+01  7.30164e+00
       H  6.93617e+00  1.96806e+01  8.44011e+00
       H  6.63837e+00  1.80082e+01  9.01720e+00
       C  9.46898e+00  2.77902e+00  2.01912e+01
       H  8.92219e+00  3.73103e+00  2.02293e+01
       H  1.00245e+01  2.63880e+00  2.11284e+01
       H  1.01715e+01  2.79357e+00  1.93467e+01
       H  8.75701e+00  1.95274e+00  2.00612e+01
       C  5.78744e+00  3.48846e+01  3.02499e+01
       H  5.35766e+00  3.54226e+01  3.11054e+01
       H  6.63578e+00  3.42772e+01  3.05899e+01
       H  6.13164e+00  3.56059e+01  2.94966e+01
       H  5.02423e+00  3.42296e+01  2.98080e+01
       C  1.42346e+01  1.31598e+01  2.06334e+01
       H  1.38264e+01  1.29703e+01  1.96307e+01
       H  1.41252e+01  1.22586e+01  2.12514e+01
       H  1.36902e+01  1.39928e+01  2.10961e+01
       H  1.52981e+01  1.34212e+01  2.05516e+01
       C  3.13662e+01  1.48422e+01  3.13837e+01
       H  3.14831e+01  1.42903e+01  3.04413e+01
       H  3.17972e+01  1.58468e+01  3.12759e+01
       H  3.18864e+01  1.43048e+01  3.21884e+01
       H  3.02988e+01  1.49264e+01  3.16290e+01
       C  9.69129e+00  3.21117e+01  7.08767e+00
       H  1.02147e+01  3.30195e+01  7.41717e+00
       H  9.53801e+00  3.14447e+01  7.94694e+00
       H  1.02947e+01  3.15977e+01  6.32737e+00
       H  8.71759e+00  3.23851e+01  6.65927e+00
       C  3.09729e+00  3.28823e+01  2.08211e+00
       H  3.47642e+00  3.34170e+01  2.96321e+00
       H  2.24116e+00  3.34258e+01  1.66189e+00
       H  2.77919e+00  3.18731e+01  2.37452e+00
       H  3.89161e+00  3.28122e+01  1.32643e+00
       C  3.30991e+00  5.78725e-01  3.40764e+01
       H  3.61077e+00  1.00014e+00  3.50447e+01
       H  2.21413e+00  5.21180e-01  3.40255e+01
       H  3.73542e+00 -4.28077e-01  3.39672e+01
       H  3.68186e+00  1.22419e+00  3.32704e+01
       C  2.74642e+01  2.67768e+01  2.42865e+01
       H  2.80826e+01  2.74494e+01  2.48959e+01
       H  2.81129e+01  2.61492e+01  2.36611e+01
       H  2.68025e+01  2.73762e+01  2.36481e+01
       H  2.68580e+01  2.61373e+01  2.49422e+01
       C  2.82502e+01  2.33960e+01  3.17550e+01
       H  2.80728e+01  2.26987e+01  3.09260e+01
       H  2.86189e+01  2.43522e+01  3.13606e+01
       H  2.89976e+01  2.29673e+01  3.24366e+01
       H  2.73095e+01  2.35610e+01  3.22968e+01
       C  1.13386e+01  1.27597e+01  1.06507e+01
       H  1.06519e+01  1.35976e+01  1.08313e+01
       H  1.07605e+01  1.18554e+01  1.04196e+01
       H  1.19488e+01  1.25850e+01  1.15472e+01
       H  1.19945e+01  1.30002e+01  9.80295e+00
       C  2.38692e+01  2.72978e+01  2.32947e+01
       H  2.34034e+01  2.71903e+01  2.42830e+01
       H  2.46310e+01  2.65181e+01  2.31614e+01
       H  2.43406e+01  2.82864e+01  2.32165e+01
       H  2.31033e+01  2.71946e+01  2.25136e+01
       C  3.42421e+01  2.13611e+01  1.14357e+01
       H  3.50584e+01  2.06579e+01  1.16491e+01
       H  3.32914e+01  2.09366e+01  1.17847e+01
       H  3.41865e+01  2.15407e+01  1.03546e+01
       H  3.44320e+01  2.23104e+01  1.19538e+01
       C  3.38595e+01  2.37810e+00  4.28378e+00
       H  3.28035e+01  2.67079e+00  4.24886e+00
       H  3.41208e+01  2.07572e+00  5.30677e+00
       H  3.44831e+01  3.23095e+00  3.98372e+00
       H  3.40288e+01  1.53788e+00  3.59705e+00
       C  2.81545e+01  3.04786e+01  6.91609e+00
       H  2.73397e+01  3.12049e+01  7.03053e+00
       H  2.86146e+01  3.05981e+01  5.92610e+00
       H  2.77588e+01  2.94596e+01  7.02019e+00
       H  2.89139e+01  3.06535e+01  7.68881e+00
       C  1.97394e+01  2.68533e+01 -1.39270e-01
       H  2.08266e+01  2.67942e+01 -2.82633e-01
       H  1.93323e+01  2.58415e+01 -1.27916e-02
       H  1.92786e+01  2.73260e+01 -1.01708e+00
       H  1.95190e+01  2.74501e+01  7.56067e-01
       C  1.97586e+01  3.33237e+01  3.00318e+01
       H  2.08477e+01  3.32327e+01  3.01390e+01
       H  1.93202e+01  3.23273e+01  2.98840e+01
       H  1.95267e+01  3.39596e+01  2.91667e+01
       H  1.93416e+01  3.37764e+01  3.09416e+01
       C  1.44696e+01  2.43070e+01  2.12784e+01
       H  1.42780e+01  2.53759e+01  2.11132e+01
       H  1.38400e+01  2.39465e+01  2.21035e+01
       H  1.55268e+01  2.41609e+01  2.15327e+01
       H  1.42288e+01  2.37439e+01  2.03672e+01
       C  3.41345e+00  3.18717e+01  1.18995e+01
       H  3.59811e+00  3.17106e+01  1.08288e+01
       H  4.34979e+00  3.17371e+01  1.24579e+01
       H  2.66838e+00  3.11481e+01  1.22562e+01
       H  3.03685e+00  3.28910e+01  1.20581e+01
       C  1.14991e+01  2.22800e+01  1.77695e+01
       H  1.17891e+01  2.12303e+01  1.76260e+01
       H  1.05579e+01  2.23245e+01  1.83314e+01
       H  1.13623e+01  2.27597e+01  1.67911e+01
       H  1.22886e+01  2.28017e+01  1.83258e+01
       C  7.53042e+00  2.01214e+01  1.40873e+00
       H  8.51445e+00  1.97655e+01  1.07496e+00
       H  7.11855e+00  1.94222e+01  2.14793e+00
       H  6.85046e+00  2.01825e+01  5.48519e-01
       H  7.63694e+00  2.11162e+01  1.86213e+00
       C  3.27664e+01  9.13909e+00  2.44060e+01
       H  3.23564e+01  9.47656e+00  2.34447e+01
       H  3.19433e+01  8.92873e+00  2.51018e+01
       H  3.34068e+01  9.92650e+00  2.48254e+01
       H  3.33583e+01  8.22642e+00  2.42527e+01
       C  1.08618e+01  2.35657e+01  1.26890e+01
       H  1.02655e+01  2.34562e+01  1.36052e+01
       H  1.02280e+01  2.33688e+01  1.18138e+01
       H  1.16944e+01  2.28496e+01  1.27042e+01
       H  1.12610e+01  2.45872e+01  1.26323e+01
       C  1.06978e+01  2.93988e+00  1.10125e+01
       H  1.04583e+01  3.61884e+00  1.01829e+01
       H  1.17882e+01  2.87457e+00  1.11291e+01
       H  1.02919e+01  1.94215e+00  1.07969e+01
       H  1.02526e+01  3.32404e+00  1.19404e+01
       C  3.39696e+01  2.86630e+01  2.05728e+01
       H  3.38202e+01  2.93417e+01  1.97214e+01
       H  3.31545e+01  2.87930e+01  2.12964e+01
       H  3.49287e+01  2.88931e+01  2.10539e+01
       H  3.39788e+01  2.76250e+01  2.02158e+01
       C  2.76988e+01  9.40200e+00  3.22243e+01
       H  2.68639e+01  8.84497e+00  3.26704e+01
       H  2.74546e+01  9.65967e+00  3.11849e+01
       H  2.86045e+01  8.78146e+00  3.22432e+01
       H  2.78735e+01  1.03223e+01  3.27983e+01
       C  2.54165e+01  2.33532e+01  2.74798e+01
       H  2.60613e+01  2.41486e+01  2.70830e+01
       H  2.54826e+01  2.33319e+01  2.85747e+01
       H  2.57402e+01  2.23819e+01  2.70833e+01
       H  2.43792e+01  2.35468e+01  2.71811e+01
       C  2.78594e+01  3.49483e+01  2.54432e+01
       H  2.80955e+01  3.55900e+01  2.45843e+01
       H  2.67702e+01  3.48403e+01  2.55333e+01
       H  2.82643e+01  3.53948e+01  2.63609e+01
       H  2.83147e+01  3.39629e+01  2.52926e+01
       C  3.30210e+01  1.68469e+01  2.43081e+01
       H  3.28697e+01  1.57848e+01  2.45417e+01
       H  3.22078e+01  1.74373e+01  2.47510e+01
       H  3.30246e+01  1.69876e+01  2.32189e+01
       H  3.39815e+01  1.71810e+01  2.47220e+01
       C  2.80163e+01  3.12077e+01  1.02506e+01
       H  2.78274e+01  3.16801e+01  1.12245e+01
       H  2.76182e+01  3.01841e+01  1.02522e+01
       H  2.90983e+01  3.11775e+01  1.00649e+01
       H  2.75234e+01  3.17915e+01  9.46285e+00
       C  1.63689e+01  2.19562e+01  1.11629e+01
       H  1.53598e+01  2.23863e+01  1.11992e+01
       H  1.64821e+01  2.12233e+01  1.19729e+01
       H  1.71104e+01  2.27562e+01  1.12869e+01
       H  1.65261e+01  2.14615e+01  1.01955e+01
       C  2.42749e-01  2.42585e+01  8.42821e-01
       H -4.09511e-01  2.49071e+01  2.43568e-01
       H  9.33156e-01  2.37245e+01  1.78177e-01
       H -3.67958e-01  2.35314e+01  1.39449e+00
       H  8.18094e-01  2.48728e+01  1.54836e+00
       C  1.86244e+01  7.15253e+00  1.31066e+00
       H  1.82816e+01  6.23854e+00  8.07274e-01
       H  1.97221e+01  7.18841e+00  1.29952e+00
       H  1.82706e+01  7.15216e+00  2.34998e+00
       H  1.82251e+01  8.03232e+00  7.88117e-01
       C  2.44822e+01  3.04448e+00  2.48828e+01
       H  2.39865e+01  2.61556e+00  2.57642e+01
       H  2.39558e+01  2.72134e+00  2.39743e+01
       H  2.55235e+01  2.70021e+00  2.48409e+01
       H  2.44629e+01  4.14078e+00  2.49479e+01
       C  5.57790e+00  2.11703e+01  3.37761e+01
       H  4.84406e+00  2.14093e+01  3.29938e+01
       H  5.13680e+00  2.04651e+01  3.44922e+01
       H  5.86605e+00  2.20902e+01  3.43011e+01
       H  6.46700e+00  2.07170e+01  3.33178e+01
       C  3.11217e+01  2.29570e+00  2.70366e+01
       H  3.05208e+01  1.41781e+00  2.73097e+01
       H  3.04586e+01  3.10134e+00  2.66949e+01
       H  3.18159e+01  2.02589e+00  2.62296e+01
       H  3.16902e+01  2.63864e+00  2.79111e+01
       C  4.69583e+00  9.71948e+00  1.05150e-01
       H  4.96456e+00  9.94556e+00  1.14602e+00
       H  5.48015e+00  1.00945e+01 -5.66223e-01
       H  3.74196e+00  1.02060e+01 -1.39774e-01
       H  4.59513e+00  8.63287e+00 -2.03769e-02
       C  1.81341e+01  3.19354e+01  1.68449e+01
       H  1.79611e+01  3.13071e+01  1.77292e+01
       H  1.92091e+01  3.21383e+01  1.67451e+01
       H  1.75908e+01  3.28836e+01  1.69565e+01
       H  1.77748e+01  3.14114e+01  1.59491e+01
       C  2.70270e+01  1.72354e+01  3.01602e+01
       H  2.79238e+01  1.68828e+01  2.96341e+01
       H  2.61557e+01  1.71466e+01  2.94985e+01
       H  2.71582e+01  1.82876e+01  3.04470e+01
       H  2.68712e+01  1.66274e+01  3.10613e+01
       C  1.63342e+01  3.26716e+01  2.00203e+01
       H  1.58925e+01  3.31285e+01  2.09158e+01
       H  1.64684e+01  3.34387e+01  1.92458e+01
       H  1.56659e+01  3.18848e+01  1.96451e+01
       H  1.73092e+01  3.22341e+01  2.02749e+01
       C  3.48069e+01  2.65433e+01  7.70453e+00
       H  3.46519e+01  2.57221e+01  8.41738e+00
       H  3.38361e+01  2.68903e+01  7.32741e+00
       H  3.54150e+01  2.61853e+01  6.86574e+00
       H  3.53235e+01  2.73719e+01  8.20620e+00
       C  4.62773e+00  2.76788e+01  1.22416e+01
       H  5.37280e+00  2.78602e+01  1.30280e+01
       H  4.44928e+00  2.86090e+01  1.16851e+01
       H  3.68764e+00  2.73396e+01  1.26974e+01
       H  5.00134e+00  2.69064e+01  1.15556e+01
       C  2.48227e+00  2.51825e+00  1.48006e+01
       H  2.70509e+00  1.48467e+00  1.45030e+01
       H  3.37923e+00  2.97537e+00  1.52398e+01
       H  1.67110e+00  2.51895e+00  1.55411e+01
       H  2.17336e+00  3.09507e+00  1.39183e+01
       C  7.87414e+00  9.00217e+00  2.75786e+00
       H  7.82771e+00  8.18391e+00  3.48819e+00
       H  8.61500e+00  9.74330e+00  3.08662e+00
       H  6.88868e+00  9.47960e+00  2.67767e+00
       H  8.16619e+00  8.60017e+00  1.77826e+00
       C  2.67338e+01  1.52814e+01  2.73037e+01
       H  2.70239e+01  1.61961e+01  2.67693e+01
       H  2.74740e+01  1.50641e+01  2.80848e+01
       H  2.66909e+01  1.44420e+01  2.65978e+01
       H  2.57481e+01  1.54247e+01  2.77630e+01
       C  5.89178e+00  1.10166e+01  2.19780e+01
       H  5.74013e+00  1.19417e+01  2.14061e+01
       H  6.77479e+00  1.11254e+01  2.26214e+01
       H  6.04624e+00  1.01782e+01  2.12869e+01
       H  5.00747e+00  1.08176e+01  2.25983e+01
       C  1.58490e+01  2.38416e+01  2.45569e+01
       H  1.52392e+01  2.46254e+01  2.40901e+01
       H  1.57404e+01  2.38918e+01  2.56496e+01
       H  1.69004e+01  2.39916e+01  2.42822e+01
       H  1.55157e+01  2.28576e+01  2.42011e+01
       C  1.29005e+01  3.14899e+01  2.25300e+01
       H  1.29579e+01  3.05696e+01  2.31275e+01
       H  1.18475e+01  3.17652e+01  2.23838e+01
       H  1.33748e+01  3.13241e+01  2.15532e+01
       H  1.34216e+01  3.22999e+01  2.30574e+01
       C  8.14505e+00  2.02763e+01  4.96561e+00
       H  7.48943e+00  1.95102e+01  4.53127e+00
       H  9.19242e+00  2.00301e+01  4.74440e+00
       H  7.99615e+00  2.03084e+01  6.05252e+00
       H  7.90263e+00  2.12577e+01  4.53658e+00
       C  2.12567e+01  5.64663e+00  2.14680e+01
       H  2.12107e+01  5.62153e+00  2.03724e+01
       H  2.14955e+01  4.64361e+00  2.18439e+01
       H  2.02874e+01  5.97166e+00  2.18667e+01
       H  2.20347e+01  6.35515e+00  2.17845e+01
       C  3.42676e+01  3.49514e+01  2.32219e+01
       H  3.44501e+01  3.51777e+01  2.21630e+01
       H  3.32749e+01  3.44950e+01  2.33311e+01
       H  3.43050e+01  3.58799e+01  2.38086e+01
       H  3.50335e+01  3.42545e+01  2.35868e+01
       C  1.88656e+01  8.95061e+00  1.39283e+01
       H  1.86697e+01  8.72795e+00  1.28710e+01
       H  1.99426e+01  9.10484e+00  1.40763e+01
       H  1.85277e+01  8.10783e+00  1.45464e+01
       H  1.83230e+01  9.86023e+00  1.42192e+01
       C  1.26196e+01  8.53039e+00  1.97555e+01
       H  1.19905e+01  7.64367e+00  1.99120e+01
       H  1.36659e+01  8.27749e+00  1.99734e+01
       H  1.22902e+01  9.33419e+00  2.04275e+01
       H  1.25302e+01  8.86437e+00  1.87130e+01
       C  1.89571e+01  2.07995e+01  4.73613e+00
       H  1.98203e+01  2.07751e+01  4.05863e+00
       H  1.81351e+01  2.02143e+01  4.30416e+00
       H  1.86259e+01  2.18377e+01  4.87503e+00
       H  1.92394e+01  2.03711e+01  5.70677e+00
       C  1.42019e+01  1.76140e+01  2.36392e+01
       H  1.37337e+01  1.66651e+01  2.39341e+01
       H  1.47925e+01  1.80065e+01  2.44773e+01
       H  1.34202e+01  1.83375e+01  2.33701e+01
       H  1.48588e+01  1.74453e+01  2.27756e+01
       C  1.26974e+01  1.89260e+01  2.63042e+01
       H  1.26673e+01  1.78759e+01  2.59886e+01
       H  1.19694e+01  1.90815e+01  2.71101e+01
       H  1.24432e+01  1.95716e+01  2.54534e+01
       H  1.37061e+01  1.91701e+01  2.66626e+01
       C  2.74361e+00  3.32559e+01  2.09516e+01
       H  3.12317e+00  3.22864e+01  2.06020e+01
       H  3.34762e+00  3.40636e+01  2.05164e+01
       H  2.80812e+00  3.33015e+01  2.20463e+01
       H  1.69609e+00  3.33718e+01  2.06424e+01
       C  7.29340e+00  1.01044e+01  1.87364e+01
       H  6.21080e+00  1.02882e+01  1.87114e+01
       H  7.48609e+00  9.10483e+00  1.91492e+01
       H  7.77672e+00  1.08613e+01  1.93689e+01
       H  7.69651e+00  1.01639e+01  1.77172e+01
       C  2.81147e+01  8.44484e+00  1.56279e+01
       H  2.79973e+01  9.35916e+00  1.50307e+01
       H  2.72478e+01  8.32773e+00  1.62916e+01
       H  2.90298e+01  8.51521e+00  1.62315e+01
       H  2.81825e+01  7.57666e+00  1.49587e+01
       C  3.04295e+00  2.18331e+01  3.62466e+01
       H  2.80543e+00  2.11832e+01  3.53938e+01
       H  4.01873e+00  2.15446e+01  3.66594e+01
       H  2.26990e+00  2.17194e+01  3.70192e+01
       H  3.08070e+00  2.28771e+01  3.59057e+01
       C  2.01245e+01  1.86476e+01  3.43495e+01
       H  2.00212e+01  1.93260e+01  3.52068e+01
       H  1.92207e+01  1.80295e+01  3.42613e+01
       H  2.10002e+01  1.80008e+01  3.44957e+01
       H  2.02529e+01  1.92364e+01  3.34317e+01
       C  2.17719e+01  1.95031e+01  1.08504e+00
       H  2.12608e+01  1.97417e+01  2.02743e+00
       H  2.17100e+01  2.03648e+01  4.06671e-01
       H  2.12919e+01  1.86336e+01  6.16617e-01
       H  2.28257e+01  1.92715e+01  1.28882e+00
       C  1.78622e+01  9.97883e+00  2.56866e+01
       H  1.81566e+01  1.09678e+01  2.53104e+01
       H  1.68521e+01  1.00359e+01  2.61146e+01
       H  1.85717e+01  9.65465e+00  2.64598e+01
       H  1.78683e+01  9.25698e+00  2.48585e+01
       C  7.49500e+00  3.26277e+00  3.68540e+01
       H  7.07359e+00  2.27872e+00  3.71007e+01
       H  6.71982e+00  4.03219e+00  3.69711e+01
       H  7.85366e+00  3.25824e+00  3.58155e+01
       H  8.33279e+00  3.48209e+00  3.75297e+01
       C  2.50944e+01  1.51031e+01  2.41509e+01
       H  2.51763e+01  1.41868e+01  2.47511e+01
       H  2.41925e+01  1.50517e+01  2.35264e+01
       H  2.59806e+01  1.52003e+01  2.35092e+01
       H  2.50281e+01  1.59728e+01  2.48186e+01
       C  2.26289e+01  1.01450e+01  3.56611e+01
       H  2.31662e+01  1.00865e+01  3.66176e+01
       H  2.24110e+01  1.11960e+01  3.54280e+01
       H  2.16868e+01  9.58555e+00  3.57349e+01
       H  2.32494e+01  9.71314e+00  3.48644e+01
       C  2.27623e+01  1.20133e+01  7.83262e+00
       H  2.24688e+01  1.21297e+01  8.88472e+00
       H  2.37998e+01  1.23486e+01  7.70075e+00
       H  2.20985e+01  1.26164e+01  7.19839e+00
       H  2.26814e+01  1.09568e+01  7.54578e+00
       C  1.41027e+00  2.54841e+01  5.40845e+00
       H  2.31415e+00  2.55935e+01  6.02159e+00
       H  1.57810e+00  2.59361e+01  4.42173e+00
       H  5.74984e-01  2.59930e+01  5.90271e+00
       H  1.17213e+00  2.44184e+01  5.29050e+00
       C  1.22952e+01  1.78038e+01  2.86310e+00
       H  1.30320e+01  1.74032e+01  2.15359e+00
       H  1.26716e+01  1.87428e+01  3.29078e+00
       H  1.21288e+01  1.70765e+01  3.66901e+00
       H  1.13481e+01  1.79933e+01  2.33996e+00
       C  1.56432e+01  7.06615e+00  1.20589e+01
       H  1.67135e+01  7.10112e+00  1.23019e+01
       H  1.50867e+01  7.70850e+00  1.27527e+01
       H  1.52785e+01  6.03520e+00  1.21549e+01
       H  1.54866e+01  7.41699e+00  1.10300e+01
       C  3.02259e+00  2.65722e+01  3.90470e-01
       H  3.27906e+00  2.63559e+01  1.43705e+00
       H  3.14870e+00  2.56620e+01 -2.10056e-01
       H  3.68898e+00  2.73585e+01  8.12857e-03
       H  1.98352e+00  2.69130e+01  3.30335e-01
       C  1.77071e+01  2.02139e+01  3.21462e+01
       H  1.70124e+01  2.06802e+01  3.14355e+01
       H  1.78485e+01  1.91575e+01  3.18827e+01
       H  1.72925e+01  2.02845e+01  3.31591e+01
       H  1.86733e+01  2.07351e+01  3.21101e+01
       C  1.36598e+01  3.33261e+01  7.56825e+00
       H  1.35419e+01  3.33838e+01  8.65875e+00
       H  1.33537e+01  3.23303e+01  7.22016e+00
       H  1.47119e+01  3.34996e+01  7.30346e+00
       H  1.30317e+01  3.40903e+01  7.09088e+00
       C  2.15782e+01  3.27755e+01  3.32892e+01
       H  2.10146e+01  3.28392e+01  3.42299e+01
       H  2.24891e+01  3.21828e+01  3.34483e+01
       H  2.18528e+01  3.37854e+01  3.29558e+01
       H  2.09568e+01  3.22922e+01  3.25235e+01
       C  3.55515e+01  2.43453e+00  1.39215e+01
       H  3.57447e+01  1.72614e+00  1.31044e+01
       H  3.59108e+01  2.00768e+00  1.48676e+01
       H  3.44722e+01  2.62668e+00  1.39933e+01
       H  3.60788e+01  3.37699e+00  1.37212e+01
       C  2.69550e+01  3.07616e+01  3.31329e+01
       H  2.62211e+01  3.15775e+01  3.31653e+01
       H  2.79035e+01  3.11039e+01  3.35678e+01
       H  2.71204e+01  3.04590e+01  3.20914e+01
       H  2.65770e+01  2.99049e+01  3.37075e+01
       C  3.07452e+01  4.82088e+00  1.24611e+01
       H  3.09111e+01  5.90126e+00  1.25679e+01
       H  2.98224e+01  4.64572e+00  1.18919e+01
       H  3.06551e+01  4.36409e+00  1.34558e+01
       H  3.15938e+01  4.37151e+00  1.19283e+01
       C  7.76417e+00  2.27855e+01  1.89545e+01
       H  7.05117e+00  2.34179e+01  1.94994e+01
       H  8.54714e+00  2.24462e+01  1.96456e+01
       H  8.21770e+00  2.33653e+01  1.81396e+01
       H  7.24141e+00  2.19139e+01  1.85392e+01
       C  3.31771e+01  3.18512e+01  2.17932e+01
       H  3.34281e+01  3.20234e+01  2.28493e+01
       H  3.28985e+01  3.28049e+01  2.13247e+01
       H  3.23343e+01  3.11518e+01  2.17330e+01
       H  3.40481e+01  3.14342e+01  2.12728e+01
       C  9.16603e+00  2.94608e+01  2.92602e+01
       H  9.49231e+00  3.00563e+01  2.83990e+01
       H  8.40784e+00  3.00178e+01  2.98244e+01
       H  1.00267e+01  2.92593e+01  2.99100e+01
       H  8.73877e+00  2.85108e+01  2.89111e+01
       C  2.61604e+01  2.59036e+01  6.73778e+00
       H  2.60227e+01  2.48232e+01  6.59933e+00
       H  2.60063e+01  2.61628e+01  7.79451e+00
       H  2.54326e+01  2.64444e+01  6.11822e+00
       H  2.71775e+01  2.61856e+01  6.43599e+00
       C  2.43560e+01  1.78196e+01  3.22516e+01
       H  2.34690e+01  1.81835e+01  3.27870e+01
       H  2.42803e+01  1.80869e+01  3.11889e+01
       H  2.44200e+01  1.67277e+01  3.23490e+01
       H  2.52566e+01  1.82793e+01  3.26798e+01
       C  4.69153e+00  9.03847e+00  2.72931e+01
       H  4.04689e+00  9.47114e+00  2.65164e+01
       H  4.08372e+00  8.82682e+00  2.81811e+01
       H  5.15008e+00  8.10604e+00  2.69222e+01
       H  5.47513e+00  9.76100e+00  2.75556e+01
       C  7.48123e+00  3.62675e+01  2.66511e+01
       H  7.89270e+00  3.54416e+01  2.72474e+01
       H  6.53101e+00  3.59536e+01  2.61975e+01
       H  8.19267e+00  3.65372e+01  2.58593e+01
       H  7.30762e+00  3.71367e+01  2.72996e+01
       C  3.18339e+01  2.22292e+01  3.01565e+01
       H  3.19149e+01  2.12032e+01  2.97772e+01
       H  3.28327e+01  2.25922e+01  3.04289e+01
       H  3.11797e+01  2.22455e+01  3.10388e+01
       H  3.14196e+01  2.28784e+01  2.93758e+01
       C  3.15385e+01  3.46055e+01  1.53901e+01
       H  3.19238e+01  3.52168e+01  1.62173e+01
       H  3.21048e+01  3.48268e+01  1.44753e+01
       H  3.04772e+01  3.48362e+01  1.52289e+01
       H  3.16478e+01  3.35411e+01  1.56360e+01
       C  2.25836e+01  4.53232e+00  2.84838e+01
       H  2.32446e+01  4.52160e+00  2.93605e+01
       H  2.31890e+01  4.49869e+00  2.75679e+01
       H  2.19818e+01  5.45068e+00  2.84907e+01
       H  2.19186e+01  3.65882e+00  2.85164e+01
       C  1.31806e+01  5.79391e+00  1.46425e+01