LAMMPS data file. CGCMM style. atom_style full generated by VMD/TopoTools v1.5 on Wed Nov 30 12:14:08 GMT 2016
 2000 atoms
 1600 bonds
 2400 angles
 0 dihedrals
 0 impropers
 2 atom types
 1 bond types
 1 angle types
 0 dihedral types
 0 improper types
 0.0 58.29  xlo xhi
 0.0 58.29  ylo yhi
 0.0 58.29  zlo zhi

# Pair Coeffs
#
# 1  CT
# 2  HC

# Bond Coeffs
#
# 1  CT-HC

# Angle Coeffs
#
# 1  HC-CT-HC

 Masses

 1 12.011000 # CT
 2 1.008000 # HC

 Atoms

1 1 1 -0.240000 29.878373 42.973064 14.276744 # CT
2 1 2 0.060000 30.379296 42.351803 15.016375 # HC
3 1 2 0.060000 30.333273 42.813706 13.301227 # HC
4 1 2 0.060000 29.976651 44.020101 14.556074 # HC
5 1 2 0.060000 28.824297 42.706677 14.233283 # HC
6 2 1 -0.240000 36.887591 1.534468 49.373079 # CT
7 2 2 0.060000 37.922698 1.373854 49.078637 # HC
8 2 2 0.060000 36.233794 1.326198 48.528605 # HC
9 2 2 0.060000 36.756070 2.567861 49.687360 # HC
10 2 2 0.060000 36.637779 0.869991 50.197696 # HC
11 3 1 -0.240000 10.567464 23.354798 40.991429 # CT
12 3 2 0.060000 10.689663 24.333047 41.451904 # HC
13 3 2 0.060000 10.960512 22.588978 41.657009 # HC
14 3 2 0.060000 11.108749 23.327889 40.047895 # HC
15 3 2 0.060000 9.510968 23.169256 40.808899 # HC
16 4 1 -0.240000 21.224990 50.515627 44.131016 # CT
17 4 2 0.060000 20.770403 49.937559 44.932970 # HC
18 4 2 0.060000 20.445892 50.912559 43.483394 # HC
19 4 2 0.060000 21.886432 49.874589 43.551763 # HC
20 4 2 0.060000 21.797227 51.337787 44.555899 # HC
21 5 1 -0.240000 55.500174 24.196544 22.414308 # CT
22 5 2 0.060000 56.093604 24.884937 21.816063 # HC
23 5 2 0.060000 55.976884 24.053149 23.381856 # HC
24 5 2 0.060000 55.426959 23.240058 21.900750 # HC
25 5 2 0.060000 54.503268 24.607997 22.558575 # HC
26 6 1 -0.240000 29.723671 46.801506 4.567013 # CT
27 6 2 0.060000 29.265546 45.816739 4.632559 # HC
28 6 2 0.060000 30.471954 46.801571 3.777054 # HC
29 6 2 0.060000 30.197769 47.044852 5.515687 # HC
30 6 2 0.060000 28.959456 47.542866 4.342760 # HC
31 7 1 -0.240000 40.729969 5.218779 14.662529 # CT
32 7 2 0.060000 40.989847 4.360330 15.278539 # HC
33 7 2 0.060000 40.209641 4.879827 13.769034 # HC
34 7 2 0.060000 41.636862 5.747175 14.375628 # HC
35 7 2 0.060000 40.083543 5.887789 15.226876 # HC
36 8 1 -0.240000 37.166681 31.607085 42.373706 # CT
37 8 2 0.060000 38.240890 31.770530 42.316243 # HC
38 8 2 0.060000 36.760866 32.157259 43.220219 # HC
39 8 2 0.060000 36.967762 30.545085 42.502378 # HC
40 8 2 0.060000 36.697191 31.955445 41.456017 # HC
41 9 1 -0.240000 49.871312 1.627460 17.176466 # CT
42 9 2 0.060000 49.499501 2.601369 16.864699 # HC
43 9 2 0.060000 50.896416 1.726047 17.527755 # HC
44 9 2 0.060000 49.841447 0.940796 16.332920 # HC
45 9 2 0.060000 49.247914 1.241610 17.980471 # HC
46 10 1 -0.240000 33.996546 47.769474 40.608591 # CT
47 10 2 0.060000 34.310413 47.424854 39.625400 # HC
48 10 2 0.060000 33.551182 46.942387 41.157717 # HC
49 10 2 0.060000 33.264434 48.566655 40.496856 # HC
50 10 2 0.060000 34.860114 48.144001 41.154401 # HC
51 11 1 -0.240000 25.331609 3.630634 24.626576 # CT
52 11 2 0.060000 26.208090 3.535379 23.988885 # HC
53 11 2 0.060000 25.120713 2.673199 25.098597 # HC
54 11 2 0.060000 24.477077 3.934718 24.025512 # HC
55 11 2 0.060000 25.520522 4.379216 25.393298 # HC
56 12 1 -0.240000 47.045347 18.012889 1.502354 # CT
57 12 2 0.060000 46.301686 17.948622 2.294047 # HC
58 12 2 0.060000 46.796613 18.837259 0.837141 # HC
59 12 2 0.060000 47.056113 17.082377 0.938437 # HC
60 12 2 0.060000 48.026966 18.183291 1.939751 # HC
61 13 1 -0.240000 8.634891 6.319642 15.763340 # CT
62 13 2 0.060000 8.499438 5.792208 14.821317 # HC
63 13 2 0.060000 8.032946 5.844159 16.535052 # HC
64 13 2 0.060000 8.323111 7.355618 15.647074 # HC
65 13 2 0.060000 9.684034 6.286604 16.049932 # HC
66 14 1 -0.240000 43.451240 2.535999 20.008684 # CT
67 14 2 0.060000 43.324771 1.777822 20.778824 # HC
68 14 2 0.060000 42.483368 2.775290 19.572880 # HC
69 14 2 0.060000 44.114704 2.158300 19.233360 # HC
70 14 2 0.060000 43.882107 3.432572 20.449635 # HC
71 15 1 -0.240000 16.696033 50.631805 8.118681 # CT
72 15 2 0.060000 16.844060 49.729441 8.708399 # HC
73 15 2 0.060000 17.226761 51.460101 8.583671 # HC
74 15 2 0.060000 15.633924 50.863177 8.070097 # HC
75 15 2 0.060000 17.079366 50.474534 7.112575 # HC
76 16 1 -0.240000 50.451077 43.334062 7.984466 # CT
77 16 2 0.060000 50.993746 42.392270 8.034273 # HC
78 16 2 0.060000 51.124032 44.153737 8.227832 # HC
79 16 2 0.060000 49.628355 43.316696 8.696361 # HC
80 16 2 0.060000 50.058172 43.473566 6.979433 # HC
81 17 1 -0.240000 2.990939 13.245980 48.134119 # CT
82 17 2 0.060000 2.740908 13.926200 48.945738 # HC
83 17 2 0.060000 3.672434 13.739485 47.444206 # HC
84 17 2 0.060000 2.082899 12.962064 47.606080 # HC
85 17 2 0.060000 3.467503 12.356182 48.540411 # HC
86 18 1 -0.240000 47.653405 16.358694 41.467444 # CT
87 18 2 0.060000 47.658004 15.625264 42.271185 # HC
88 18 2 0.060000 46.921041 16.069300 40.716540 # HC
89 18 2 0.060000 48.640750 16.404347 41.012433 # HC
90 18 2 0.060000 47.393837 17.335853 41.869578 # HC
91 19 1 -0.240000 52.869477 32.430499 49.101411 # CT
92 19 2 0.060000 53.144540 31.449415 48.719631 # HC
93 19 2 0.060000 53.037432 32.461673 50.176019 # HC
94 19 2 0.060000 51.818316 32.619156 48.892989 # HC
95 19 2 0.060000 53.477586 33.191753 48.617032 # HC
96 20 1 -0.240000 4.041818 35.435814 18.985273 # CT
97 20 2 0.060000 4.720784 35.565954 18.145029 # HC
98 20 2 0.060000 4.066532 36.324544 19.612578 # HC
99 20 2 0.060000 4.349310 34.570866 19.569467 # HC
100 20 2 0.060000 3.030663 35.281892 18.614058 # HC
101 21 1 -0.240000 18.654585 38.765730 15.703609 # CT
102 21 2 0.060000 17.703471 38.241756 15.634517 # HC
103 21 2 0.060000 18.748744 39.457997 14.869425 # HC
104 21 2 0.060000 19.469026 38.044927 15.670447 # HC
105 21 2 0.060000 18.697129 39.318232 16.640016 # HC
106 22 1 -0.240000 7.254162 19.203519 57.239184 # CT
107 22 2 0.060000 6.965158 18.786178 58.201600 # HC
108 22 2 0.060000 7.320277 18.405198 56.502792 # HC
109 22 2 0.060000 8.221738 19.692597 57.331755 # HC
110 22 2 0.060000 6.509512 19.930094 56.920573 # HC
111 23 1 -0.240000 16.473914 15.254060 34.335484 # CT
112 23 2 0.060000 17.558055 15.329931 34.388613 # HC
113 23 2 0.060000 16.198903 14.487387 33.613997 # HC
114 23 2 0.060000 16.058194 16.210388 34.024703 # HC
115 23 2 0.060000 16.080485 14.988546 35.314587 # HC
116 24 1 -0.240000 18.190198 46.422437 56.491144 # CT
117 24 2 0.060000 19.059989 45.831279 56.211972 # HC
118 24 2 0.060000 17.634847 46.695560 55.596185 # HC
119 24 2 0.060000 18.514749 47.324426 57.005976 # HC
120 24 2 0.060000 17.551205 45.838522 57.150431 # HC
121 25 1 -0.240000 45.698671 24.129902 32.959034 # CT
122 25 2 0.060000 46.144479 24.528017 33.868264 # HC
123 25 2 0.060000 46.484821 23.873483 32.251800 # HC
124 25 2 0.060000 45.044166 24.878916 32.517932 # HC
125 25 2 0.060000 45.121221 23.239213 33.198103 # HC
126 26 1 -0.240000 46.788212 39.237300 12.020706 # CT
127 26 2 0.060000 45.736528 39.353917 11.767126 # HC
128 26 2 0.060000 47.401428 39.669228 11.232437 # HC
129 26 2 0.060000 47.021467 38.179440 12.123152 # HC
130 26 2 0.060000 46.993449 39.746590 12.960083 # HC
131 27 1 -0.240000 48.941747 54.754075 25.244851 # CT
132 27 2 0.060000 49.108727 54.689118 26.318089 # HC
133 27 2 0.060000 47.956038 54.359630 25.006620 # HC
134 27 2 0.060000 49.700355 54.173424 24.723959 # HC
135 27 2 0.060000 49.001866 55.794090 24.930716 # HC
136 28 1 -0.240000 31.353228 10.014981 9.912181 # CT
137 28 2 0.060000 30.881018 9.172455 9.411074 # HC
138 28 2 0.060000 31.978279 10.554540 9.203556 # HC
139 28 2 0.060000 31.967211 9.650845 10.733400 # HC
140 28 2 0.060000 30.586446 10.682084 10.300700 # HC
141 29 1 -0.240000 7.794716 16.172503 13.554258 # CT
142 29 2 0.060000 7.541964 17.214577 13.369491 # HC
143 29 2 0.060000 7.480148 15.895531 14.558397 # HC
144 29 2 0.060000 8.870485 16.038211 13.461211 # HC
145 29 2 0.060000 7.286296 15.541685 12.827962 # HC
146 30 1 -0.240000 52.993467 8.328997 7.114308 # CT
147 30 2 0.060000 52.077372 8.230239 6.535552 # HC
148 30 2 0.060000 53.251257 7.366891 7.552325 # HC
149 30 2 0.060000 52.845006 9.060042 7.906458 # HC
150 30 2 0.060000 53.800231 8.658809 6.462937 # HC
151 31 1 -0.240000 31.237157 39.811741 10.087859 # CT
152 31 2 0.060000 31.885642 39.123231 9.549934 # HC
153 31 2 0.060000 30.202456 39.491443 9.984109 # HC
154 31 2 0.060000 31.349971 40.812696 9.676358 # HC
155 31 2 0.060000 31.510533 39.819618 11.141012 # HC
156 32 1 -0.240000 26.772084 51.649616 31.074431 # CT
157 32 2 0.060000 26.748254 52.378021 30.266470 # HC
158 32 2 0.060000 26.717435 50.645373 30.659135 # HC
159 32 2 0.060000 25.924749 51.814786 31.736785 # HC
160 32 2 0.060000 27.697862 51.760261 31.635340 # HC
161 33 1 -0.240000 41.630561 5.415670 38.885358 # CT
162 33 2 0.060000 42.309877 4.706562 38.416702 # HC
163 33 2 0.060000 42.197141 6.099305 39.514319 # HC
164 33 2 0.060000 40.907643 4.877006 39.494620 # HC
165 33 2 0.060000 41.107579 5.979805 38.115832 # HC
166 34 1 -0.240000 9.101736 27.627231 11.859452 # CT
167 34 2 0.060000 8.551866 27.745338 12.790921 # HC
168 34 2 0.060000 9.205834 28.595670 11.374425 # HC
169 34 2 0.060000 8.561052 26.948873 11.202596 # HC
170 34 2 0.060000 10.088173 27.219053 12.069832 # HC
171 35 1 -0.240000 12.322807 12.161928 39.665601 # CT
172 35 2 0.060000 12.092393 12.793522 38.810066 # HC
173 35 2 0.060000 11.498103 12.196552 40.374563 # HC
174 35 2 0.060000 13.230327 12.520410 40.147128 # HC
175 35 2 0.060000 12.470410 11.137247 39.330684 # HC
176 36 1 -0.240000 21.458460 19.760302 38.047906 # CT
177 36 2 0.060000 22.181792 19.249943 38.680572 # HC
178 36 2 0.060000 21.093507 19.073264 37.287150 # HC
179 36 2 0.060000 21.934250 20.613199 37.568154 # HC
180 36 2 0.060000 20.624302 20.104810 38.655708 # HC
181 37 1 -0.240000 50.808608 11.951871 16.662974 # CT
182 37 2 0.060000 51.505419 12.234905 15.876662 # HC
183 37 2 0.060000 50.602504 12.814847 17.292860 # HC
184 37 2 0.060000 51.245235 11.158526 17.266241 # HC
185 37 2 0.060000 49.881286 11.599206 16.216173 # HC
186 38 1 -0.240000 15.892715 47.312264 11.831346 # CT
187 38 2 0.060000 14.996366 47.283132 11.215188 # HC
188 38 2 0.060000 15.944715 46.411018 12.438811 # HC
189 38 2 0.060000 15.858822 48.185320 12.479878 # HC
190 38 2 0.060000 16.770951 47.369588 11.191547 # HC
191 39 1 -0.240000 56.726392 35.509223 54.392744 # CT
192 39 2 0.060000 57.153033 36.510135 54.383077 # HC
193 39 2 0.060000 57.390526 34.826760 53.866310 # HC
194 39 2 0.060000 55.756379 35.523640 53.899959 # HC
195 39 2 0.060000 56.605618 35.176339 55.421593 # HC
196 40 1 -0.240000 45.402493 49.384520 26.128699 # CT
197 40 2 0.060000 45.346630 48.311627 25.956301 # HC
198 40 2 0.060000 45.775651 49.876858 25.232976 # HC
199 40 2 0.060000 46.076300 49.583778 26.959511 # HC
200 40 2 0.060000 44.411427 49.765836 26.366007 # HC
201 41 1 -0.240000 34.816652 36.470376 37.418314 # CT
202 41 2 0.060000 35.112040 37.054128 36.548877 # HC
203 41 2 0.060000 35.441365 35.582222 37.488154 # HC
204 41 2 0.060000 33.774451 36.173839 37.319048 # HC
205 41 2 0.060000 34.938733 37.071278 38.317169 # HC
206 42 1 -0.240000 19.749424 4.888821 57.284106 # CT
207 42 2 0.060000 20.490554 4.713623 56.506950 # HC
208 42 2 0.060000 20.003851 5.794858 57.830299 # HC
209 42 2 0.060000 19.735919 4.043848 57.969531 # HC
210 42 2 0.060000 18.767384 5.002955 56.829685 # HC
211 43 1 -0.240000 40.950653 10.226535 0.743337 # CT
212 43 2 0.060000 40.249798 9.779821 1.445612 # HC
213 43 2 0.060000 41.710688 10.779461 1.291590 # HC
214 43 2 0.060000 40.417081 10.904095 0.079874 # HC
215 43 2 0.060000 41.425045 9.442805 0.156270 # HC
216 44 1 -0.240000 21.831792 28.461126 37.955100 # CT
217 44 2 0.060000 21.310989 28.879415 37.096183 # HC
218 44 2 0.060000 21.156518 28.427491 38.807646 # HC
219 44 2 0.060000 22.690664 29.083835 38.197058 # HC
220 44 2 0.060000 22.169007 27.453789 37.719547 # HC
221 45 1 -0.240000 11.149648 53.042059 4.729763 # CT
222 45 2 0.060000 11.017840 53.157519 5.803652 # HC
223 45 2 0.060000 12.078122 52.509740 4.533460 # HC
224 45 2 0.060000 11.188279 54.023483 4.261487 # HC
225 45 2 0.060000 10.314383 52.477512 4.320437 # HC
226 46 1 -0.240000 12.093071 40.546272 16.073839 # CT
227 46 2 0.060000 12.267881 39.907336 16.937057 # HC
228 46 2 0.060000 11.356182 40.081566 15.421916 # HC
229 46 2 0.060000 13.024911 40.682509 15.528785 # HC
230 46 2 0.060000 11.723323 41.513661 16.407563 # HC
231 47 1 -0.240000 36.430514 14.485192 24.380433 # CT
232 47 2 0.060000 35.544413 13.883215 24.189670 # HC
233 47 2 0.060000 36.467675 14.752003 25.434659 # HC
234 47 2 0.060000 36.390389 15.390649 23.778347 # HC
235 47 2 0.060000 37.319575 13.914939 24.119067 # HC
236 48 1 -0.240000 28.050645 46.668609 46.590656 # CT
237 48 2 0.060000 28.430966 46.053263 47.403458 # HC
238 48 2 0.060000 27.403734 46.068797 45.953714 # HC
239 48 2 0.060000 28.883919 47.050480 46.004312 # HC
240 48 2 0.060000 27.483974 47.501884 47.001099 # HC
241 49 1 -0.240000 51.539453 28.964829 10.688676 # CT
242 49 2 0.060000 52.205327 28.238434 11.150090 # HC
243 49 2 0.060000 50.536932 28.547064 10.622444 # HC
244 49 2 0.060000 51.899477 29.203832 9.690062 # HC
245 49 2 0.060000 51.516058 29.869978 11.292071 # HC
246 50 1 -0.240000 3.451960 8.418664 53.073395 # CT
247 50 2 0.060000 4.314641 8.659989 52.455750 # HC
248 50 2 0.060000 3.026525 9.335499 53.476361 # HC
249 50 2 0.060000 3.761445 7.772053 53.891982 # HC
250 50 2 0.060000 2.705233 7.907124 52.469530 # HC
251 51 1 -0.240000 7.583730 23.036639 49.282336 # CT
252 51 2 0.060000 6.567039 23.414766 49.196894 # HC
253 51 2 0.060000 7.557710 21.964414 49.465694 # HC
254 51 2 0.060000 8.087353 23.533816 50.108863 # HC
255 51 2 0.060000 8.122829 23.233543 48.357929 # HC
256 52 1 -0.240000 31.645518 23.829758 26.962307 # CT
257 52 2 0.060000 31.476617 22.857171 26.504608 # HC
258 52 2 0.060000 30.885083 24.011459 27.719066 # HC
259 52 2 0.060000 31.590558 24.603959 26.199705 # HC
260 52 2 0.060000 32.629786 23.846471 27.425842 # HC
261 53 1 -0.240000 42.976056 52.855360 3.914838 # CT
262 53 2 0.060000 43.928265 53.381847 3.907708 # HC
263 53 2 0.060000 42.164911 53.574123 4.011719 # HC
264 53 2 0.060000 42.950188 52.163923 4.754610 # HC
265 53 2 0.060000 42.860838 52.301547 2.985352 # HC
266 54 1 -0.240000 26.562878 11.413319 18.884254 # CT
267 54 2 0.060000 26.195982 10.590914 19.494973 # HC
268 54 2 0.060000 26.948302 12.200274 19.529322 # HC
269 54 2 0.060000 25.748850 11.806780 18.278848 # HC
270 54 2 0.060000 27.358359 11.055346 18.233874 # HC
271 55 1 -0.240000 44.169947 17.234570 1.010795 # CT
272 55 2 0.060000 43.327672 16.729594 0.542272 # HC
273 55 2 0.060000 43.958381 17.389127 2.066879 # HC
274 55 2 0.060000 44.330038 18.196662 0.528383 # HC
275 55 2 0.060000 45.063691 16.622936 0.905659 # HC
276 56 1 -0.240000 9.124139 11.880901 33.790756 # CT
277 56 2 0.060000 9.854719 11.810070 32.987526 # HC
278 56 2 0.060000 9.500177 12.546027 34.565459 # HC
279 56 2 0.060000 8.952380 10.892880 34.212991 # HC
280 56 2 0.060000 8.189291 12.274613 33.397083 # HC
281 57 1 -0.240000 37.442171 35.143939 55.452776 # CT
282 57 2 0.060000 37.438278 35.856562 56.275026 # HC
283 57 2 0.060000 38.299138 35.336038 54.810383 # HC
284 57 2 0.060000 36.525567 35.250428 54.876177 # HC
285 57 2 0.060000 37.505697 34.132742 55.849480 # HC
286 58 1 -0.240000 16.346013 10.949296 34.316393 # CT
287 58 2 0.060000 16.051572 10.721542 35.338828 # HC
288 58 2 0.060000 16.574685 12.009782 34.232486 # HC
289 58 2 0.060000 15.531109 10.699371 33.640051 # HC
290 58 2 0.060000 17.226661 10.366515 34.054184 # HC
291 59 1 -0.240000 17.916271 21.885412 21.590709 # CT
292 59 2 0.060000 18.267087 22.381594 20.688117 # HC
293 59 2 0.060000 17.432076 22.612494 22.239453 # HC
294 59 2 0.060000 18.761489 21.440489 22.111881 # HC
295 59 2 0.060000 17.204451 21.107083 21.323422 # HC
296 60 1 -0.240000 34.714078 6.978811 5.055459 # CT
297 60 2 0.060000 35.204471 7.712321 4.418734 # HC
298 60 2 0.060000 34.024694 7.485355 5.727862 # HC
299 60 2 0.060000 35.462832 6.445711 5.637818 # HC
300 60 2 0.060000 34.164324 6.271859 4.437466 # HC
301 61 1 -0.240000 55.943438 10.288035 7.737977 # CT
302 61 2 0.060000 55.730965 9.240307 7.940615 # HC
303 61 2 0.060000 55.933412 10.458915 6.663425 # HC
304 61 2 0.060000 56.923209 10.543127 8.136659 # HC
305 61 2 0.060000 55.186203 10.909802 8.211188 # HC
306 62 1 -0.240000 20.133787 44.940071 20.059538 # CT
307 62 2 0.060000 19.645721 44.851084 21.027946 # HC
308 62 2 0.060000 19.576047 45.634715 19.434751 # HC
309 62 2 0.060000 20.165516 43.964652 19.578371 # HC
310 62 2 0.060000 21.147840 45.309818 20.197050 # HC
311 63 1 -0.240000 51.885146 21.383700 34.093191 # CT
312 63 2 0.060000 51.929678 22.469331 34.151186 # HC
313 63 2 0.060000 52.867676 20.968403 34.307962 # HC
314 63 2 0.060000 51.576379 21.086266 33.093108 # HC
315 63 2 0.060000 51.166875 21.010781 34.820478 # HC
316 64 1 -0.240000 42.894168 16.132494 19.465295 # CT
317 64 2 0.060000 41.949455 16.199774 18.929635 # HC
318 64 2 0.060000 42.709131 16.192170 20.535884 # HC
319 64 2 0.060000 43.541814 16.952903 19.162883 # HC
320 64 2 0.060000 43.376285 15.185162 19.232799 # HC
321 65 1 -0.240000 38.810121 37.554886 39.968884 # CT
322 65 2 0.060000 39.611356 37.178678 40.601680 # HC
323 65 2 0.060000 38.603247 36.835295 39.179355 # HC
324 65 2 0.060000 39.111774 38.502081 39.526394 # HC
325 65 2 0.060000 37.914117 37.703498 40.568065 # HC
326 66 1 -0.240000 32.007562 56.209944 48.607230 # CT
327 66 2 0.060000 31.647298 57.069174 49.169258 # HC
328 66 2 0.060000 32.525744 56.552309 47.713790 # HC
329 66 2 0.060000 31.164453 55.584761 48.320378 # HC
330 66 2 0.060000 32.692736 55.633524 49.225457 # HC
331 67 1 -0.240000 5.080878 18.171319 23.359063 # CT
332 67 2 0.060000 4.185848 17.592724 23.139769 # HC
333 67 2 0.060000 4.867730 19.230874 23.233073 # HC
334 67 2 0.060000 5.877922 17.878306 22.678743 # HC
335 67 2 0.060000 5.392031 17.983394 24.384634 # HC
336 68 1 -0.240000 22.594217 46.829781 52.114538 # CT
337 68 2 0.060000 22.178589 47.823655 52.267537 # HC
338 68 2 0.060000 23.615190 46.801894 52.489770 # HC
339 68 2 0.060000 22.591782 46.595244 51.052014 # HC
340 68 2 0.060000 21.991339 46.098325 52.648803 # HC
341 69 1 -0.240000 52.133816 44.269549 49.654030 # CT
342 69 2 0.060000 52.136930 44.670373 48.642461 # HC
343 69 2 0.060000 53.148782 44.266803 50.046203 # HC
344 69 2 0.060000 51.747692 43.252357 49.639929 # HC
345 69 2 0.060000 51.501881 44.888628 50.287533 # HC
346 70 1 -0.240000 47.637763 41.337451 23.337991 # CT
347 70 2 0.060000 46.972475 40.744078 22.714099 # HC
348 70 2 0.060000 48.654779 40.962560 23.242607 # HC
349 70 2 0.060000 47.320803 41.266051 24.376455 # HC
350 70 2 0.060000 47.603015 42.377095 23.018835 # HC
351 71 1 -0.240000 28.511460 48.516342 57.599800 # CT
352 71 2 0.060000 28.790055 48.332988 56.564084 # HC
353 71 2 0.060000 27.793394 47.764474 57.920794 # HC
354 71 2 0.060000 28.064538 49.504704 57.685656 # HC
355 71 2 0.060000 29.397815 48.463214 58.228673 # HC
356 72 1 -0.240000 30.013316 34.204281 54.965283 # CT
357 72 2 0.060000 29.483601 34.925428 55.584388 # HC
358 72 2 0.060000 29.809965 33.198032 55.325942 # HC
359 72 2 0.060000 31.082695 34.398671 55.016372 # HC
360 72 2 0.060000 29.677032 34.294970 53.934450 # HC
361 73 1 -0.240000 2.998572 22.178754 33.918709 # CT
362 73 2 0.060000 3.610185 22.562311 33.104611 # HC
363 73 2 0.060000 3.177321 22.768378 34.815567 # HC
364 73 2 0.060000 3.259240 21.139761 34.109802 # HC
365 73 2 0.060000 1.947562 22.244548 33.644889 # HC
366 74 1 -0.240000 46.180192 43.591857 41.401015 # CT
367 74 2 0.060000 46.454493 44.546000 41.846336 # HC
368 74 2 0.060000 46.674758 42.785258 41.938383 # HC
369 74 2 0.060000 46.489748 43.576047 40.357993 # HC
370 74 2 0.060000 45.101800 43.460100 41.461329 # HC
371 75 1 -0.240000 9.500775 22.348272 42.344865 # CT
372 75 2 0.060000 9.616015 23.428700 42.402626 # HC
373 75 2 0.060000 9.872886 21.994599 41.385484 # HC
374 75 2 0.060000 8.448356 22.089991 42.443228 # HC
375 75 2 0.060000 10.065815 21.879781 43.148092 # HC
376 76 1 -0.240000 12.436923 5.464822 22.447761 # CT
377 76 2 0.060000 12.175660 4.428762 22.653342 # HC
378 76 2 0.060000 12.339205 6.051213 23.359111 # HC
379 76 2 0.060000 11.768944 5.863188 21.686790 # HC
380 76 2 0.060000 13.463855 5.516153 22.091806 # HC
381 77 1 -0.240000 46.722738 16.044397 45.523025 # CT
382 77 2 0.060000 46.224905 16.586638 46.324323 # HC
383 77 2 0.060000 47.587544 16.611221 45.184230 # HC
384 77 2 0.060000 46.031541 15.907178 44.693936 # HC
385 77 2 0.060000 47.046960 15.072569 45.889573 # HC
386 78 1 -0.240000 32.739614 33.050011 39.949131 # CT
387 78 2 0.060000 33.781929 32.878673 39.688052 # HC
388 78 2 0.060000 32.407235 33.991255 39.516065 # HC
389 78 2 0.060000 32.639286 33.093412 41.031730 # HC
390 78 2 0.060000 32.129995 32.236736 39.560701 # HC
391 79 1 -0.240000 13.396712 32.065031 24.684501 # CT
392 79 2 0.060000 13.440256 31.259095 25.414236 # HC
393 79 2 0.060000 12.498598 31.958418 24.079533 # HC
394 79 2 0.060000 14.273972 32.020637 24.042307 # HC
395 79 2 0.060000 13.374025 33.021965 25.201890 # HC
396 80 1 -0.240000 15.806808 26.270679 6.280550 # CT
397 80 2 0.060000 16.444227 26.830052 5.598831 # HC
398 80 2 0.060000 16.409020 25.868954 7.092904 # HC
399 80 2 0.060000 15.330701 25.452954 5.743319 # HC
400 80 2 0.060000 15.043291 26.930715 6.687148 # HC
401 81 1 -0.240000 9.275913 13.800793 23.371901 # CT
402 81 2 0.060000 9.290459 13.052207 22.582378 # HC
403 81 2 0.060000 9.689737 14.733789 22.994765 # HC
404 81 2 0.060000 9.872734 13.452923 24.212593 # HC
405 81 2 0.060000 8.250761 13.964269 23.697885 # HC
406 82 1 -0.240000 38.106296 34.963172 12.828988 # CT
407 82 2 0.060000 37.579399 34.265925 13.477190 # HC
408 82 2 0.060000 38.248726 35.907065 13.351235 # HC
409 82 2 0.060000 37.521737 35.132361 11.926971 # HC
410 82 2 0.060000 39.075304 34.547372 12.560542 # HC
411 83 1 -0.240000 55.525015 12.759062 25.686395 # CT
412 83 2 0.060000 55.213577 13.769385 25.429108 # HC
413 83 2 0.060000 56.174874 12.790866 26.558538 # HC
414 83 2 0.060000 56.063651 12.321107 24.848519 # HC
415 83 2 0.060000 54.647998 12.154882 25.909411 # HC
416 84 1 -0.240000 17.012161 49.342012 26.225433 # CT
417 84 2 0.060000 16.889157 48.261347 26.256657 # HC
418 84 2 0.060000 16.857920 49.753521 27.220838 # HC
419 84 2 0.060000 16.284381 49.770216 25.539177 # HC
420 84 2 0.060000 18.017154 49.582986 25.885067 # HC
421 85 1 -0.240000 18.560878 38.989806 20.819740 # CT
422 85 2 0.060000 18.988112 38.849517 21.810563 # HC
423 85 2 0.060000 19.354511 38.965293 20.075758 # HC
424 85 2 0.060000 18.052859 39.951067 20.776587 # HC
425 85 2 0.060000 17.848042 38.193380 20.616029 # HC
426 86 1 -0.240000 6.409683 16.757628 46.382221 # CT
427 86 2 0.060000 7.291828 16.803729 45.746897 # HC
428 86 2 0.060000 6.630919 17.216182 47.343858 # HC
429 86 2 0.060000 6.125156 15.718252 46.532921 # HC
430 86 2 0.060000 5.590832 17.292327 45.905243 # HC
431 87 1 -0.240000 40.735280 10.896702 53.729122 # CT
432 87 2 0.060000 41.388329 10.309414 53.086813 # HC
433 87 2 0.060000 41.307830 11.696504 54.194381 # HC
434 87 2 0.060000 40.313891 10.255922 54.501005 # HC
435 87 2 0.060000 39.931077 11.324967 53.134332 # HC
436 88 1 -0.240000 29.863052 5.501496 5.085189 # CT
437 88 2 0.060000 30.893313 5.445435 4.739704 # HC
438 88 2 0.060000 29.509032 6.527290 5.005330 # HC
439 88 2 0.060000 29.810560 5.179477 6.123225 # HC
440 88 2 0.060000 29.239294 4.853804 4.472532 # HC
441 89 1 -0.240000 29.225966 29.237613 41.386233 # CT
442 89 2 0.060000 29.335636 28.380200 42.047108 # HC
443 89 2 0.060000 29.844232 29.095572 40.502189 # HC
444 89 2 0.060000 29.540025 30.139718 41.907331 # HC
445 89 2 0.060000 28.184006 29.334988 41.088297 # HC
446 90 1 -0.240000 25.571621 31.011955 33.304846 # CT
447 90 2 0.060000 26.537768 31.493820 33.440149 # HC
448 90 2 0.060000 25.524339 30.566141 32.313394 # HC
449 90 2 0.060000 24.779947 31.751237 33.408218 # HC
450 90 2 0.060000 25.444402 30.236639 34.057593 # HC
451 91 1 -0.240000 39.695079 24.182935 2.022079 # CT
452 91 2 0.060000 39.582240 25.262953 2.091145 # HC
453 91 2 0.060000 39.615409 23.875759 0.981283 # HC
454 91 2 0.060000 38.913537 23.698654 2.604002 # HC
455 91 2 0.060000 40.669095 23.894353 2.411874 # HC
456 92 1 -0.240000 43.433480 34.021275 40.238604 # CT
457 92 2 0.060000 44.396884 33.583419 39.985470 # HC
458 92 2 0.060000 42.828808 33.286829 40.766736 # HC
459 92 2 0.060000 42.922078 34.324274 39.327215 # HC
460 92 2 0.060000 43.586117 34.890562 40.874977 # HC
461 93 1 -0.240000 20.385401 52.149105 10.943813 # CT
462 93 2 0.060000 20.260339 52.207983 12.023088 # HC
463 93 2 0.060000 21.170421 52.834884 10.631704 # HC
464 93 2 0.060000 19.451708 52.420066 10.455174 # HC
465 93 2 0.060000 20.659125 51.133520 10.665264 # HC
466 94 1 -0.240000 44.835032 35.919458 47.341664 # CT
467 94 2 0.060000 44.409950 35.107489 46.755188 # HC
468 94 2 0.060000 45.574467 35.519442 48.032450 # HC
469 94 2 0.060000 44.044713 36.414001 47.902728 # HC
470 94 2 0.060000 45.310991 36.636899 46.676330 # HC
471 95 1 -0.240000 14.045744 5.510087 57.217877 # CT
472 95 2 0.060000 13.077509 5.986770 57.079185 # HC
473 95 2 0.060000 14.232369 5.370489 58.280725 # HC
474 95 2 0.060000 14.824390 6.140015 56.792589 # HC
475 95 2 0.060000 14.048738 4.543097 56.719029 # HC
476 96 1 -0.240000 50.111155 42.685103 17.595212 # CT
477 96 2 0.060000 51.131359 42.646475 17.218870 # HC
478 96 2 0.060000 49.591770 43.530783 17.149088 # HC
479 96 2 0.060000 50.127768 42.799420 18.677167 # HC
480 96 2 0.060000 49.593713 41.763767 17.335747 # HC
481 97 1 -0.240000 51.752795 51.770333 1.682234 # CT
482 97 2 0.060000 52.794649 51.629516 1.962682 # HC
483 97 2 0.060000 51.645311 51.637515 0.607632 # HC
484 97 2 0.060000 51.435695 52.774256 1.957110 # HC
485 97 2 0.060000 51.135515 51.040079 2.201486 # HC
486 98 1 -0.240000 46.982794 39.876108 50.531335 # CT
487 98 2 0.060000 47.386841 40.478472 49.720258 # HC
488 98 2 0.060000 47.573045 38.968223 50.637690 # HC
489 98 2 0.060000 45.950554 39.613612 50.308744 # HC
490 98 2 0.060000 47.020720 40.444086 51.458637 # HC
491 99 1 -0.240000 38.905276 42.521574 38.714123 # CT
492 99 2 0.060000 38.890853 41.546890 38.230673 # HC
493 99 2 0.060000 38.759122 43.299146 37.967140 # HC
494 99 2 0.060000 39.864254 42.667807 39.207020 # HC
495 99 2 0.060000 38.106908 42.572481 39.451649 # HC
496 100 1 -0.240000 8.331492 6.561583 18.151250 # CT
497 100 2 0.060000 8.226941 5.750609 18.869116 # HC
498 100 2 0.060000 7.479650 6.558773 17.474257 # HC
499 100 2 0.060000 9.248263 6.425426 17.581195 # HC
500 100 2 0.060000 8.371121 7.511513 18.680391 # HC
501 101 1 -0.240000 17.296037 22.702428 26.728440 # CT
502 101 2 0.060000 17.450513 23.377065 25.888831 # HC
503 101 2 0.060000 18.181478 22.084986 26.865266 # HC
504 101 2 0.060000 16.436946 22.065288 26.528473 # HC
505 101 2 0.060000 17.115208 23.282330 27.631181 # HC
506 102 1 -0.240000 52.026181 3.956322 1.291043 # CT
507 102 2 0.060000 51.380548 4.072656 0.422962 # HC
508 102 2 0.060000 52.521851 2.988663 1.247336 # HC
509 102 2 0.060000 51.428543 4.017039 2.198299 # HC
510 102 2 0.060000 52.773773 4.746900 1.295606 # HC
511 103 1 -0.240000 47.097493 21.141343 9.415376 # CT
512 103 2 0.060000 47.160541 20.912958 8.353393 # HC
513 103 2 0.060000 48.040702 20.891208 9.896782 # HC
514 103 2 0.060000 46.295441 20.559189 9.864574 # HC
515 103 2 0.060000 46.893290 22.201985 9.546781 # HC
516 104 1 -0.240000 44.083551 41.128819 18.634132 # CT
517 104 2 0.060000 44.369564 40.532282 19.498008 # HC
518 104 2 0.060000 43.044276 41.435514 18.733163 # HC
519 104 2 0.060000 44.202270 40.536617 17.729050 # HC
520 104 2 0.060000 44.718065 42.010846 18.576280 # HC
521 105 1 -0.240000 22.603114 55.890233 41.708284 # CT
522 105 2 0.060000 23.093847 56.145580 42.645258 # HC
523 105 2 0.060000 22.823636 54.855611 41.453550 # HC
524 105 2 0.060000 22.967296 56.543807 40.918232 # HC
525 105 2 0.060000 21.527701 56.015924 41.816063 # HC
526 106 1 -0.240000 27.708961 28.669774 11.216397 # CT
527 106 2 0.060000 27.243960 27.924632 10.574152 # HC
528 106 2 0.060000 28.148282 28.178840 12.082391 # HC
529 106 2 0.060000 26.957255 29.383743 11.546784 # HC
530 106 2 0.060000 28.486332 29.191885 10.662301 # HC
531 107 1 -0.240000 13.295137 20.740648 52.546290 # CT
532 107 2 0.060000 12.959022 19.716963 52.394510 # HC
533 107 2 0.060000 12.853660 21.135805 53.458930 # HC
534 107 2 0.060000 12.988068 21.352402 51.700456 # HC
535 107 2 0.060000 14.379768 20.757452 52.631262 # HC
536 108 1 -0.240000 3.598565 53.490404 47.641781 # CT
537 108 2 0.060000 3.269345 54.096335 48.483447 # HC
538 108 2 0.060000 4.047440 54.132205 46.886423 # HC
539 108 2 0.060000 2.744511 52.969318 47.213960 # HC
540 108 2 0.060000 4.332946 52.763763 47.983256 # HC
541 109 1 -0.240000 17.646169 52.792596 37.444057 # CT
542 109 2 0.060000 17.302636 53.824894 37.461014 # HC
543 109 2 0.060000 17.489048 52.341944 38.421906 # HC
544 109 2 0.060000 18.706006 52.767013 37.198984 # HC
545 109 2 0.060000 17.087019 52.236522 36.694350 # HC
546 110 1 -0.240000 27.833480 27.713209 31.365086 # CT
547 110 2 0.060000 28.158388 27.306914 30.409419 # HC
548 110 2 0.060000 28.563485 27.463551 32.132371 # HC
549 110 2 0.060000 26.868010 27.287493 31.630796 # HC
550 110 2 0.060000 27.744028 28.794852 31.287788 # HC
551 111 1 -0.240000 48.349931 24.681714 42.084144 # CT
552 111 2 0.060000 49.400765 24.400190 42.063305 # HC
553 111 2 0.060000 48.216847 25.538091 42.742072 # HC
554 111 2 0.060000 47.757835 23.846227 42.452048 # HC
555 111 2 0.060000 48.024257 24.942342 41.079188 # HC
556 112 1 -0.240000 46.698582 25.539130 46.431534 # CT
557 112 2 0.060000 45.660478 25.288078 46.223556 # HC
558 112 2 0.060000 47.032817 26.305728 45.735417 # HC
559 112 2 0.060000 47.316517 24.650875 46.316955 # HC
560 112 2 0.060000 46.784544 25.911831 47.450176 # HC
561 113 1 -0.240000 28.636432 51.717932 25.033909 # CT