2002
# CELL(abcABC):  110.15213   110.15213   110.15213    90.00000    90.00000    90.00000  Step:         100  Bead:       0 x_centroid{angstrom}  cell{atomic_unit}
       C  3.01501e+01  4.30769e+01  1.41202e+01
       H  3.06328e+01  4.24478e+01  1.48805e+01
       H  3.05957e+01  4.28707e+01  1.31375e+01
       H  3.02967e+01  4.41356e+01  1.43739e+01
       H  2.90751e+01  4.28531e+01  1.40890e+01
       C  3.69727e+01  1.46182e+00  4.92421e+01
       H  3.80081e+01  1.29895e+00  4.89134e+01
       H  3.62861e+01  1.23734e+00  4.84145e+01
       H  3.68463e+01  2.50904e+00  4.95489e+01
       H  3.67499e+01  8.02107e-01  5.00918e+01
       C  1.13000e+01  2.42603e+01  3.99830e+01
       H  1.13591e+01  2.51985e+01  4.05510e+01
       H  1.18673e+01  2.34793e+01  4.05071e+01
       H  1.17254e+01  2.44138e+01  3.89819e+01
       H  1.02497e+01  2.39511e+01  3.98926e+01
       C  2.12743e+01  5.05604e+01  4.41559e+01
       H  2.08175e+01  4.99802e+01  4.49692e+01
       H  2.04859e+01  5.09609e+01  4.35041e+01
       H  2.19382e+01  4.99101e+01  4.35703e+01
       H  2.18555e+01  5.13905e+01  4.45800e+01
       C  5.55956e+01  2.43170e+01  2.24591e+01
       H  5.60300e+01  2.48927e+01  2.16302e+01
       H  5.59048e+01  2.47597e+01  2.34156e+01
       H  5.59472e+01  2.32778e+01  2.24070e+01
       H  5.44998e+01  2.43371e+01  2.23835e+01
       C  2.95518e+01  4.68291e+01  4.48120e+00
       H  2.90966e+01  4.58293e+01  4.48437e+00
       H  3.01712e+01  4.69465e+01  3.58164e+00
       H  3.01783e+01  4.69488e+01  5.37555e+00
       H  2.87608e+01  4.75913e+01  4.48347e+00
       C  4.08428e+01  5.09678e+00  1.47517e+01
       H  4.11398e+01  4.23763e+00  1.53685e+01
       H  4.03080e+01  4.74066e+00  1.38607e+01
       H  4.17384e+01  5.65304e+00  1.44431e+01
       H  4.01850e+01  5.75610e+00  1.53342e+01
       C  3.68076e+01  3.17062e+01  4.23401e+01
       H  3.78869e+01  3.17942e+01  4.21555e+01
       H  3.65369e+01  3.23039e+01  4.32210e+01
       H  3.65514e+01  3.06531e+01  4.25193e+01
       H  3.62549e+01  3.20733e+01  4.14646e+01
       C  4.98207e+01  1.56827e+00  1.70955e+01
       H  4.94217e+01  2.52767e+00  1.67392e+01
       H  5.08402e+01  1.71487e+00  1.74776e+01
       H  4.98406e+01  8.49033e-01  1.62655e+01
       H  4.91803e+01  1.18142e+00  1.78998e+01
       C  3.41043e+01  4.78643e+01  4.05561e+01
       H  3.44218e+01  4.75250e+01  3.95607e+01
       H  3.36435e+01  4.70274e+01  4.10984e+01
       H  3.33741e+01  4.86780e+01  4.04497e+01
       H  3.49776e+01  4.82265e+01  4.11154e+01
       C  2.42333e+01  4.56522e+00  2.38833e+01
       H  2.50536e+01  4.12095e+00  2.33030e+01
       H  2.36210e+01  3.76531e+00  2.43216e+01
       H  2.36113e+01  5.18415e+00  2.32229e+01
       H  2.46458e+01  5.18994e+00  2.46873e+01
       C  4.72624e+01  1.81269e+01  1.51030e+00
       H  4.65737e+01  1.80168e+01  2.35909e+00
       H  4.68934e+01  1.89149e+01  8.39913e-01
       H  4.73209e+01  1.71773e+01  9.61023e-01
       H  4.82601e+01  1.83979e+01  1.88102e+00
       C  8.75535e+00  6.00459e+00  1.49301e+01
       H  8.70265e+00  6.16470e+00  1.38447e+01
       H  8.31977e+00  5.02691e+00  1.51771e+01
       H  8.19235e+00  6.79496e+00  1.54448e+01
       H  9.80516e+00  6.03076e+00  1.52534e+01
       C  4.30958e+01  2.48771e+00  2.02134e+01
       H  4.27192e+01  2.01554e+00  2.11312e+01
       H  4.22488e+01  2.78766e+00  1.95813e+01
       H  4.37266e+01  1.77379e+00  1.96667e+01
       H  4.36881e+01  3.37499e+00  2.04748e+01
       C  1.65703e+01  5.05855e+01  8.37511e+00
       H  1.67091e+01  4.96678e+01  8.96270e+00
       H  1.71341e+01  5.14061e+01  8.83900e+00
       H  1.55030e+01  5.08444e+01  8.34733e+00
       H  1.69345e+01  5.04240e+01  7.35140e+00
       C  4.91657e+01  4.33061e+01  8.53108e+00
       H  4.94154e+01  4.22656e+01  8.77880e+00
       H  4.99937e+01  4.39627e+01  8.83140e+00
       H  4.82521e+01  4.36018e+01  9.06514e+00
       H  4.90005e+01  4.33945e+01  7.44886e+00
       C  3.09298e+00  1.33422e+01  4.80597e+01
       H  2.82095e+00  1.40047e+01  4.88927e+01
       H  3.77936e+00  1.38685e+01  4.73824e+01
       H  2.18641e+00  1.30534e+01  4.75106e+01
       H  3.58486e+00  1.24423e+01  4.84532e+01
       C  4.76747e+01  1.62532e+01  4.15485e+01
       H  4.76210e+01  1.53454e+01  4.21647e+01
       H  4.70491e+01  1.61268e+01  4.06544e+01
       H  4.87157e+01  1.64286e+01  4.12450e+01
       H  4.73134e+01  1.71124e+01  4.21299e+01
       C  5.28725e+01  3.24261e+01  4.91101e+01
       H  5.31625e+01  3.14395e+01  4.87236e+01
       H  5.30430e+01  3.24590e+01  5.01948e+01
       H  5.18086e+01  3.26029e+01  4.89011e+01
       H  5.34758e+01  3.32028e+01  4.86209e+01
       C  4.06774e+00  3.51318e+01  1.89594e+01
       H  4.74516e+00  3.51837e+01  1.80961e+01
       H  4.09839e+00  3.60837e+01  1.95068e+01
       H  4.38373e+00  3.43163e+01  1.96240e+01
       H  3.04351e+00  3.49428e+01  1.86100e+01
       C  1.86360e+01  3.93290e+01  1.51323e+01
       H  1.80101e+01  3.85710e+01  1.56228e+01
       H  1.80217e+01  3.99112e+01  1.44322e+01
       H  1.94500e+01  3.88339e+01  1.45854e+01
       H  1.90601e+01  4.00000e+01  1.58919e+01
       C  7.31216e+00  1.93418e+01  5.72129e+01
       H  7.03842e+00  1.89214e+01  5.81902e+01
       H  7.38929e+00  1.85320e+01  5.64747e+01
       H  8.27892e+00  1.98572e+01  5.72937e+01
       H  6.54181e+00  2.00567e+01  5.68931e+01
       C  1.67795e+01  1.57352e+01  3.40029e+01
       H  1.78502e+01  1.55309e+01  3.38658e+01
       H  1.62099e+01  1.48043e+01  3.38785e+01
       H  1.64478e+01  1.64697e+01  3.32562e+01
       H  1.66099e+01  1.61366e+01  3.50110e+01
       C  1.82337e+01  4.64317e+01  5.64769e+01
       H  1.91211e+01  4.58490e+01  5.61946e+01
       H  1.76743e+01  4.67081e+01  5.55728e+01
       H  1.85466e+01  4.73419e+01  5.70065e+01
       H  1.75928e+01  4.58279e+01  5.71338e+01
       C  4.57266e+01  2.42582e+01  3.29918e+01
       H  4.61598e+01  2.46877e+01  3.39054e+01
       H  4.65323e+01  2.39965e+01  3.22924e+01
       H  4.50588e+01  2.49933e+01  3.25225e+01
       H  4.51556e+01  2.33550e+01  3.32467e+01
       C  4.68175e+01  3.93983e+01  1.21464e+01
       H  4.57428e+01  3.95295e+01  1.19605e+01
       H  4.73833e+01  3.96993e+01  1.12543e+01
       H  4.70240e+01  3.83431e+01  1.23714e+01
       H  4.71196e+01  4.00214e+01  1.29991e+01
       C  4.92954e+01  5.49537e+01  2.51643e+01
       H  4.92983e+01  5.49086e+01  2.62619e+01
       H  4.82657e+01  5.48507e+01  2.47954e+01
       H  4.99109e+01  5.41367e+01  2.47637e+01
       H  4.97062e+01  5.59181e+01  2.48358e+01
       C  3.13492e+01  9.89352e+00  9.85032e+00
       H  3.08864e+01  9.03690e+00  9.34169e+00
       H  3.19965e+01  1.04321e+01  9.14493e+00
       H  3.19492e+01  9.53567e+00  1.06980e+01
       H  3.05646e+01  1.05696e+01  1.02166e+01
       C  7.81175e+00  1.61718e+01  1.35828e+01
       H  7.54433e+00  1.72202e+01  1.33933e+01
       H  7.50547e+00  1.58939e+01  1.46005e+01
       H  8.89836e+00  1.60468e+01  1.34805e+01
       H  7.29900e+00  1.55261e+01  1.28569e+01
       C  5.29439e+01  8.20579e+00  6.97532e+00
       H  5.19541e+01  8.20365e+00  6.49906e+00
       H  5.30506e+01  7.30939e+00  7.60133e+00
       H  5.30475e+01  9.10300e+00  7.60077e+00
       H  5.37231e+01  8.20649e+00  6.20076e+00
       C  3.10951e+01  3.99442e+01  1.00209e+01
       H  3.17567e+01  3.92380e+01  9.50088e+00
       H  3.00571e+01  3.95910e+01  9.95335e+00
       H  3.11759e+01  4.09344e+01  9.55234e+00
       H  3.13905e+01  4.00131e+01  1.10767e+01
       C  2.68009e+01  5.16384e+01  3.10283e+01
       H  2.67715e+01  5.23623e+01  3.02025e+01
       H  2.67560e+01  5.06184e+01  3.06229e+01
       H  2.59426e+01  5.18063e+01  3.16931e+01
       H  2.77333e+01  5.17667e+01  3.15947e+01
       C  4.08037e+01  5.45023e+00  3.76973e+01
       H  4.13648e+01  4.71971e+00  3.70986e+01
       H  4.15065e+01  6.09327e+00  3.82440e+01
       H  4.01593e+01  4.92235e+00  3.84134e+01
       H  4.01835e+01  6.06742e+00  3.70327e+01
       C  9.08593e+00  2.76215e+01  1.18980e+01
       H  8.53845e+00  2.77342e+01  1.28436e+01
       H  9.19403e+00  2.86037e+01  1.14181e+01
       H  8.53072e+00  2.69475e+01  1.12315e+01
       H  1.00805e+01  2.72006e+01  1.20987e+01
       C  1.26737e+01  1.21476e+01  3.95882e+01
       H  1.23190e+01  1.28281e+01  3.88023e+01
       H  1.19316e+01  1.21037e+01  4.03970e+01
       H  1.36289e+01  1.25152e+01  3.99870e+01
       H  1.28154e+01  1.11434e+01  3.91662e+01
       C  2.12839e+01  1.98646e+01  3.80154e+01
       H  2.20541e+01  1.93041e+01  3.85627e+01
       H  2.08279e+01  1.92148e+01  3.72561e+01
       H  2.17427e+01  2.07339e+01  3.75250e+01
       H  2.05108e+01  2.02060e+01  3.87172e+01
       C  5.10764e+01  1.17237e+01  1.67405e+01
       H  5.17488e+01  1.22562e+01  1.60543e+01
       H  5.08007e+01  1.23866e+01  1.75717e+01
       H  5.15860e+01  1.08344e+01  1.71357e+01
       H  5.01698e+01  1.14178e+01  1.62006e+01
       C  1.59474e+01  4.63441e+01  1.16768e+01
       H  1.54118e+01  4.58036e+01  1.08846e+01
       H  1.62253e+01  4.56422e+01  1.24748e+01
       H  1.52981e+01  4.71286e+01  1.20882e+01
       H  1.68540e+01  4.68018e+01  1.12580e+01
       C  5.67248e+01  3.54810e+01  5.43852e+01
       H  5.71628e+01  3.64883e+01  5.43694e+01
       H  5.73970e+01  3.47814e+01  5.38699e+01
       H  5.57519e+01  3.54968e+01  5.38753e+01
       H  5.65875e+01  3.51576e+01  5.54260e+01
       C  4.53578e+01  4.90586e+01  2.60778e+01
       H  4.50335e+01  4.80286e+01  2.58762e+01
       H  4.57804e+01  4.94954e+01  2.51627e+01
       H  4.61214e+01  4.90543e+01  2.68676e+01
       H  4.44964e+01  4.96568e+01  2.64048e+01
       C  3.47270e+01  3.56488e+01  3.71974e+01
       H  3.49513e+01  3.64561e+01  3.64870e+01
       H  3.51811e+01  3.47134e+01  3.68430e+01
       H  3.36388e+01  3.55202e+01  3.72742e+01
       H  3.51367e+01  3.59046e+01  3.81841e+01
       C  1.96769e+01  4.86312e+00  5.72604e+01
       H  2.03988e+01  4.67553e+00  5.64539e+01
       H  1.99588e+01  5.77824e+00  5.77987e+01
       H  1.96773e+01  4.01374e+00  5.79570e+01
       H  1.86727e+01  4.98486e+00  5.68320e+01
       C  4.10652e+01  1.02920e+01  6.26203e-01
       H  4.02585e+01  9.85654e+00  1.23147e+00
       H  4.18753e+01  1.06316e+01  1.28594e+00
       H  4.06753e+01  1.11461e+01  5.62638e-02
       H  4.14520e+01  9.53398e+00 -6.84121e-02
       C  2.18372e+01  2.85115e+01  3.77809e+01
       H  2.13913e+01  2.89005e+01  3.68554e+01
       H  2.10914e+01  2.85395e+01  3.85869e+01
       H  2.27009e+01  2.91304e+01  3.80594e+01
       H  2.21654e+01  2.74754e+01  3.76215e+01
       C  1.06137e+01  5.30516e+01  4.70615e+00
       H  1.08440e+01  5.30910e+01  5.77964e+00
       H  1.10759e+01  5.21581e+01  4.26543e+00
       H  1.10092e+01  5.39499e+01  4.21251e+00
       H  9.52515e+00  5.30063e+01  4.56625e+00
       C  1.24867e+01  4.06372e+01  1.62647e+01
       H  1.23878e+01  3.99253e+01  1.70956e+01
       H  1.20693e+01  4.01926e+01  1.53508e+01
       H  1.35484e+01  4.08710e+01  1.61077e+01
       H  1.19406e+01  4.15596e+01  1.65051e+01
       C  3.65749e+01  1.44629e+01  2.43387e+01
       H  3.60505e+01  1.36529e+01  2.38138e+01
       H  3.63943e+01  1.43760e+01  2.54187e+01
       H  3.62017e+01  1.54327e+01  2.39823e+01
       H  3.76529e+01  1.43890e+01  2.41403e+01
       C  2.78447e+01  4.64762e+01  4.64682e+01
       H  2.83584e+01  4.59579e+01  4.72894e+01
       H  2.70799e+01  4.58154e+01  4.60384e+01
       H  2.85743e+01  4.67450e+01  4.56922e+01
       H  2.73673e+01  4.73876e+01  4.68533e+01
       C  5.14929e+01  2.90903e+01  1.07234e+01
       H  5.21737e+01  2.83814e+01  1.12140e+01
       H  5.04915e+01  2.86447e+01  1.06494e+01
       H  5.18669e+01  2.93197e+01  9.71634e+00
       H  5.14395e+01  3.00152e+01  1.13138e+01
       C  3.43695e+00  8.40195e+00  5.30591e+01
       H  4.30518e+00  8.64509e+00  5.24316e+01
       H  3.00912e+00  9.32791e+00  5.34669e+01
       H  3.75302e+00  7.74998e+00  5.38848e+01
       H  2.68052e+00  7.88484e+00  5.24532e+01
       C  7.63112e+00  2.30899e+01  4.92267e+01
       H  6.60389e+00  2.34710e+01  4.91476e+01
       H  7.60674e+00  2.20073e+01  4.94114e+01
       H  8.14483e+00  2.35917e+01  5.00580e+01
       H  8.16895e+00  2.32895e+01  4.82899e+01
       C  3.18885e+01  2.41174e+01  2.69473e+01
       H  3.17070e+01  2.31889e+01  2.63889e+01
       H  3.11754e+01  2.41900e+01  2.77797e+01
       H  3.17587e+01  2.49787e+01  2.62779e+01
       H  3.29135e+01  2.41121e+01  2.73424e+01
       C  4.28815e+01  5.28792e+01  3.94287e+00
       H  4.38305e+01  5.34326e+01  3.93844e+00
       H  4.20463e+01  5.35852e+01  4.04614e+00
       H  4.28724e+01  5.21751e+01  4.78600e+00
       H  4.27773e+01  5.23238e+01  3.00087e+00
       C  2.64477e+01  1.15294e+01  1.88864e+01
       H  2.57615e+01  1.06982e+01  1.90977e+01
       H  2.66779e+01  1.20606e+01  1.98199e+01
       H  2.59751e+01  1.22225e+01  1.81773e+01
       H  2.73765e+01  1.11356e+01  1.84512e+01
       C  4.39673e+01  1.70876e+01  8.85493e-01
       H  4.29923e+01  1.67856e+01  4.79720e-01
       H  4.38757e+01  1.72677e+01  1.96530e+00
       H  4.43017e+01  1.80084e+01  3.88512e-01
       H  4.47009e+01  1.62893e+01  7.08696e-01
       C  8.89782e+00  1.19696e+01  3.38448e+01
       H  9.60128e+00  1.18892e+01  3.30049e+01
       H  9.33545e+00  1.26018e+01  3.46294e+01
       H  8.69657e+00  1.09689e+01  3.42508e+01
       H  7.95858e+00  1.24186e+01  3.34943e+01
       C  3.74227e+01  3.51263e+01  5.54404e+01
       H  3.74166e+01  3.58429e+01  5.62730e+01
       H  3.82872e+01  3.53252e+01  5.47925e+01
       H  3.64970e+01  3.52329e+01  5.48588e+01
       H  3.74901e+01  3.41043e+01  5.58375e+01
       C  1.64668e+01  1.06193e+01  3.43349e+01
       H  1.63134e+01  1.06111e+01  3.54226e+01
       H  1.69544e+01  1.15586e+01  3.40405e+01
       H  1.54956e+01  1.05364e+01  3.38282e+01
       H  1.71040e+01  9.77132e+00  3.40493e+01
       C  1.77970e+01  2.19793e+01  2.17423e+01
       H  1.82604e+01  2.24689e+01  2.08750e+01
       H  1.73399e+01  2.27389e+01  2.23909e+01
       H  1.85634e+01  2.14300e+01  2.23059e+01
       H  1.70239e+01  2.12790e+01  2.13976e+01
       C  3.41045e+01  7.19294e+00  5.67267e+00
       H  3.41077e+01  8.03918e+00  4.97227e+00
       H  3.37433e+01  7.53067e+00  6.65367e+00
       H  3.51246e+01  6.79873e+00  5.77421e+00
       H  3.34433e+01  6.40315e+00  5.29089e+00
       C  5.60046e+01  1.01439e+01  7.50191e+00
       H  5.59697e+01  9.09700e+00  7.83317e+00
       H  5.58985e+01  1.01858e+01  6.40944e+00
       H  5.69650e+01  1.05893e+01  7.79523e+00
       H  5.51837e+01  1.07036e+01  7.97072e+00
       C  1.98094e+01  4.48696e+01  1.99397e+01
       H  1.93617e+01  4.47832e+01  2.09391e+01
       H  1.92042e+01  4.55498e+01  1.93250e+01
       H  1.98422e+01  4.38790e+01  1.94661e+01
       H  2.08299e+01  4.52666e+01  2.00290e+01
       C  5.19550e+01  2.13770e+01  3.41640e+01
       H  5.19956e+01  2.24727e+01  3.42305e+01
       H  5.29356e+01  2.09576e+01  3.44272e+01
       H  5.16935e+01  2.10819e+01  3.31387e+01
       H  5.11952e+01  2.09959e+01  3.48598e+01
       C  4.29012e+01  1.60769e+01  1.94964e+01
       H  4.19518e+01  1.61499e+01  1.89487e+01
       H  4.27076e+01  1.61453e+01  2.05756e+01
       H  4.35643e+01  1.68975e+01  1.91906e+01
       H  4.33811e+01  1.51148e+01  1.92708e+01
       C  3.84871e+01  3.76983e+01  3.99044e+01
       H  3.93677e+01  3.72853e+01  4.04153e+01
       H  3.81973e+01  3.70335e+01  3.90793e+01
       H  3.87282e+01  3.86930e+01  3.95056e+01
       H  3.76555e+01  3.77810e+01  4.06173e+01
       C  3.20729e+01  5.62013e+01  4.86125e+01
       H  3.17160e+01  5.70698e+01  4.91826e+01
       H  3.25890e+01  5.65455e+01  4.77058e+01
       H  3.12180e+01  5.55718e+01  4.83305e+01
       H  3.27689e+01  5.56182e+01  4.92308e+01
       C  5.13389e+00  1.80822e+01  2.33905e+01
       H  4.22934e+00  1.75019e+01  2.31630e+01
       H  4.92409e+00  1.91527e+01  2.32614e+01
       H  5.94211e+00  1.77827e+01  2.27094e+01
       H  5.43993e+00  1.78915e+01  2.44281e+01
       C  2.26020e+01  4.70228e+01  5.20119e+01
       H  2.21818e+01  4.80183e+01  5.22097e+01
       H  2.36361e+01  4.69820e+01  5.23804e+01
       H  2.25908e+01  4.68287e+01  5.09307e+01
       H  2.19995e+01  4.62623e+01  5.25269e+01
       C  5.19454e+01  4.44160e+01  4.91852e+01
       H  5.22701e+01  4.51105e+01  4.83985e+01
       H  5.28097e+01  4.41252e+01  4.97978e+01
       H  5.15065e+01  4.35209e+01  4.87241e+01
       H  5.11954e+01  4.49067e+01  4.98205e+01
       C  4.76381e+01  4.13762e+01  2.32720e+01
       H  4.69652e+01  4.07858e+01  2.26354e+01
       H  4.86632e+01  4.09932e+01  2.31757e+01
       H  4.73147e+01  4.12973e+01  2.43189e+01
       H  4.76095e+01  4.24285e+01  2.29582e+01
       C  2.85335e+01  4.84640e+01  5.75242e+01
       H  2.89019e+01  4.83755e+01  5.64933e+01
       H  2.77927e+01  4.76761e+01  5.77174e+01
       H  2.80654e+01  4.94480e+01  5.76631e+01
       H  2.93731e+01  4.83563e+01  5.82243e+01
       C  2.99948e+01  3.43878e+01  5.48993e+01
       H  2.94641e+01  3.51234e+01  5.55188e+01
       H  2.97658e+01  3.33745e+01  5.52566e+01
       H  3.10769e+01  3.45641e+01  5.49676e+01
       H  2.96726e+01  3.44890e+01  5.38540e+01
       C  3.00842e+00  2.21494e+01  3.39417e+01
       H  3.62440e+00  2.25383e+01  3.31195e+01
       H  3.18507e+00  2.27474e+01  3.48461e+01
       H  3.27693e+00  2.11022e+01  3.41368e+01
       H  1.94718e+00  2.22097e+01  3.36644e+01
       C  4.61765e+01  4.36229e+01  4.14005e+01
       H  4.64558e+01  4.45829e+01  4.18558e+01
       H  4.66835e+01  4.28051e+01  4.19305e+01
       H  4.64779e+01  4.36171e+01  4.03442e+01
       H  4.50888e+01  4.34865e+01  4.14717e+01
       C  8.54659e+00  2.14822e+01  4.35126e+01
       H  8.68293e+00  2.25635e+01  4.33742e+01
       H  8.76000e+00  2.09624e+01  4.25685e+01
       H  7.51089e+00  2.12789e+01  4.38170e+01
       H  9.23208e+00  2.11220e+01  4.42915e+01
       C  1.23237e+01  5.44542e+00  2.23243e+01
       H  1.20725e+01  4.39722e+00  2.25362e+01
       H  1.22369e+01  6.03637e+00  2.32462e+01
       H  1.16322e+01  5.84211e+00  2.15685e+01
       H  1.33534e+01  5.50593e+00  2.19463e+01
       C  4.67577e+01  1.60251e+01  4.53208e+01
       H  4.62126e+01  1.64756e+01  4.61614e+01
       H  4.75423e+01  1.67149e+01  4.49816e+01
       H  4.60609e+01  1.58290e+01  4.44946e+01
       H  4.72154e+01  1.50808e+01  4.56455e+01
       C  3.28707e+01  3.31259e+01  3.98872e+01
       H  3.38963e+01  3.28063e+01  3.96571e+01
       H  3.25485e+01  3.38774e+01  3.91537e+01
       H  3.28405e+01  3.35613e+01  4.08954e+01
       H  3.21982e+01  3.22582e+01  3.98421e+01
       C  1.28359e+01  3.25438e+01  2.45050e+01
       H  1.22423e+01  3.18917e+01  2.51594e+01
       H  1.21840e+01  3.29799e+01  2.37359e+01
       H  1.36282e+01  3.19550e+01  2.40234e+01
       H  1.32879e+01  3.33470e+01  2.51029e+01
       C  1.58292e+01  2.62976e+01  6.29269e+00
       H  1.62438e+01  2.70973e+01  5.66411e+00
       H  1.66346e+01  2.58430e+01  6.88559e+00
       H  1.53689e+01  2.55319e+01  5.65347e+00
       H  1.50694e+01  2.67168e+01  6.96638e+00
       C  9.24482e+00  1.38606e+01  2.32834e+01
       H  9.25489e+00  1.30813e+01  2.25093e+01
       H  9.68577e+00  1.47826e+01  2.28806e+01
       H  9.82976e+00  1.35232e+01  2.41499e+01
       H  8.20909e+00  1.40551e+01  2.35935e+01
       C  3.80114e+01  3.51283e+01  1.28574e+01
       H  3.74501e+01  3.44694e+01  1.35337e+01
       H  3.82314e+01  3.60755e+01  1.33683e+01
       H  3.74111e+01  3.53279e+01  1.19593e+01
       H  3.89524e+01  3.46407e+01  1.25682e+01
       C  5.58810e+01  1.28621e+01  2.57819e+01
       H  5.58782e+01  1.39600e+01  2.58160e+01
       H  5.65545e+01  1.24740e+01  2.65581e+01
       H  5.62275e+01  1.25274e+01  2.47946e+01
       H  5.48636e+01  1.24873e+01  2.59589e+01
       C  1.69585e+01  4.92805e+01  2.61462e+01
       H  1.68410e+01  4.81888e+01  2.61784e+01
       H  1.67970e+01  4.96960e+01  2.71502e+01
       H  1.62234e+01  4.97075e+01  2.54506e+01
       H  1.79727e+01  4.95297e+01  2.58057e+01
       C  1.84959e+01  3.87531e+01  2.09195e+01
       H  1.91088e+01  3.83436e+01  2.17343e+01
       H  1.91275e+01  3.89284e+01  2.00378e+01
       H  1.80448e+01  3.97020e+01  2.12408e+01
       H  1.77015e+01  3.80384e+01  2.06645e+01
       C  6.32534e+00  1.67023e+01  4.64027e+01
       H  7.21795e+00  1.67379e+01  4.57634e+01
       H  6.54799e+00  1.71753e+01  4.73688e+01
       H  6.03318e+00  1.56560e+01  4.65659e+01
       H  5.50236e+00  1.72402e+01  4.59127e+01
       C  4.05896e+01  1.07699e+01  5.36174e+01
       H  4.13060e+01  1.01672e+01  5.30429e+01
       H  4.10110e+01  1.17682e+01  5.37969e+01
       H  4.03861e+01  1.02792e+01  5.45790e+01
       H  3.96535e+01  1.08665e+01  5.30506e+01
       C  3.00274e+01  5.74274e+00  5.05798e+00
       H  3.10416e+01  5.61818e+00  4.65516e+00
       H  2.97169e+01  6.79103e+00  4.95068e+00
       H  3.00187e+01  5.46511e+00  6.12080e+00
       H  2.93321e+01  5.09638e+00  4.50515e+00
       C  2.93643e+01  2.95893e+01  4.19934e+01
       H  2.95445e+01  2.86605e+01  4.25516e+01
       H  3.00402e+01  2.96331e+01  4.11284e+01
       H  2.95512e+01  3.04513e+01  4.26480e+01
       H  2.83221e+01  2.96094e+01  4.16463e+01
       C  2.57197e+01  3.06116e+01  3.32062e+01
       H  2.66924e+01  3.11007e+01  3.33522e+01
       H  2.57082e+01  3.01030e+01  3.22325e+01
       H  2.49223e+01  3.13667e+01  3.32347e+01
       H  2.55561e+01  2.98760e+01  3.40054e+01
       C  3.96750e+01  2.42175e+01  1.93849e+00
       H  3.95631e+01  2.53065e+01  2.02909e+00
       H  3.96025e+01  2.39288e+01  8.81049e-01
       H  3.88800e+01  2.37189e+01  2.50969e+00
       H  4.06543e+01  2.39158e+01  2.33425e+00
       C  4.33825e+01  3.40009e+01  4.03392e+01
       H  4.43880e+01  3.36127e+01  4.05521e+01
       H  4.26303e+01  3.33059e+01  4.07370e+01
       H  4.32501e+01  3.41012e+01  3.92532e+01
       H  4.32609e+01  3.49836e+01  4.08152e+01
       C  2.02166e+01  5.19552e+01  1.06887e+01
       H  2.00990e+01  5.19890e+01  1.17804e+01
       H  2.09991e+01  5.26629e+01  1.03827e+01
       H  1.92671e+01  5.22297e+01  1.02096e+01
       H  2.05013e+01  5.09395e+01  1.03822e+01
       C  4.45547e+01  3.60315e+01  4.73809e+01
       H  4.41367e+01  3.51937e+01  4.68065e+01
       H  4.53035e+01  3.56520e+01  4.80896e+01
       H  4.37496e+01  3.65348e+01  4.79333e+01
       H  4.50297e+01  3.67455e+01  4.66943e+01
       C  1.41464e+01  5.49128e+00  5.72133e+01
       H  1.31764e+01  5.98692e+00  5.70715e+01
       H  1.43299e+01  5.34604e+00  5.82866e+01
       H  1.49428e+01  6.11630e+00  5.67868e+01
       H  1.41363e+01  4.51583e+00  5.67082e+01
       C  5.03977e+01  4.23625e+01  1.80188e+01
       H  5.13534e+01  4.22218e+01  1.74955e+01
       H  5.00936e+01  4.34157e+01  1.79489e+01
       H  5.05137e+01  4.20842e+01  1.90751e+01
       H  4.96299e+01  4.17281e+01  1.75556e+01
       C  5.17659e+01  5.17866e+01  1.63915e+00
       H  5.28153e+01  5.16363e+01  1.92723e+00
       H  5.16607e+01  5.16492e+01  5.54364e-01
       H  5.14535e+01  5.28039e+01  1.91147e+00
       H  5.11342e+01  5.10568e+01  2.16364e+00
       C  4.71802e+01  4.00447e+01  5.04468e+01
       H  4.76185e+01  4.06671e+01  4.96552e+01
       H  4.77526e+01  3.91115e+01  5.05381e+01
       H  4.61371e+01  3.98110e+01  5.01937e+01
       H  4.72128e+01  4.05890e+01  5.14004e+01
       C  3.87984e+01  4.22889e+01  3.88202e+01
       H  3.87878e+01  4.12956e+01  3.83513e+01
       H  3.86393e+01  4.30582e+01  3.80523e+01
       H  3.97692e+01  4.24536e+01  3.93073e+01
       H  3.79977e+01  4.23486e+01  3.95699e+01
       C  8.35488e+00  6.71349e+00  1.90449e+01
       H  8.08564e+00  5.83832e+00  1.96517e+01
       H  7.56938e+00  6.89627e+00  1.82990e+01
       H  9.30922e+00  6.52619e+00  1.85340e+01
       H  8.45403e+00  7.59312e+00  1.96953e+01
       C  1.73648e+01  2.29067e+01  2.66452e+01
       H  1.73622e+01  2.33359e+01  2.56340e+01
       H  1.80722e+01  2.20670e+01  2.66844e+01
       H  1.63567e+01  2.25487e+01  2.68942e+01
       H  1.76681e+01  2.36754e+01  2.73690e+01
       C  5.22169e+01  4.23282e+00  1.13717e+00
       H  5.15989e+01  3.88088e+00  2.99512e-01
       H  5.31985e+01  3.74164e+00  1.09906e+00
       H  5.17222e+01  3.98767e+00  2.08703e+00
       H  5.23509e+01  5.32051e+00  1.06308e+00
       C  4.70908e+01  2.11472e+01  9.39703e+00
       H  4.71615e+01  2.09234e+01  8.32388e+00
       H  4.80393e+01  2.08899e+01  9.88794e+00
       H  4.62770e+01  2.05579e+01  9.84113e+00
       H  4.68855e+01  2.22174e+01  9.53515e+00
       C  4.41295e+01  4.11973e+01  1.85505e+01
       H  4.44146e+01  4.06137e+01  1.94364e+01
       H  4.30817e+01  4.15142e+01  1.86424e+01
       H  4.42470e+01  4.05782e+01  1.76507e+01
       H  4.47746e+01  4.20831e+01  1.84724e+01
       C  2.25885e+01  5.58231e+01  4.17119e+01
       H  2.30836e+01  5.60908e+01  4.26552e+01
       H  2.28081e+01  5.47748e+01  4.14677e+01
       H  2.29593e+01  5.64720e+01  4.09068e+01
       H  2.15031e+01  5.59548e+01  4.18178e+01
       C  2.76944e+01  2.86769e+01  1.11937e+01
       H  2.72313e+01  2.79148e+01  1.05522e+01
       H  2.81394e+01  2.81934e+01  1.20739e+01
       H  2.69299e+01  2.93960e+01  1.15183e+01
       H  2.84768e+01  2.92036e+01  1.06305e+01
       C  1.33157e+01  2.06864e+01  5.23570e+01
       H  1.29680e+01  1.96521e+01  5.22313e+01
       H  1.28810e+01  2.11102e+01  5.32726e+01
       H  1.30023e+01  2.12859e+01  5.14915e+01
       H  1.44115e+01  2.06977e+01  5.24326e+01
       C  4.23974e+00  5.32462e+01  4.75136e+01
       H  4.39012e+00  5.36363e+01  4.85294e+01
       H  4.53760e+00  5.40088e+01  4.67812e+01
       H  3.17997e+00  5.29938e+01  4.73718e+01
       H  4.85262e+00  5.23458e+01  4.73725e+01
       C  1.76659e+01  5.27847e+01  3.74668e+01
       H  1.73157e+01  5.38259e+01  3.74778e+01
       H  1.74996e+01  5.23320e+01  3.84538e+01
       H  1.87381e+01  5.27615e+01  3.72292e+01
       H  1.71100e+01  5.22195e+01  3.67064e+01
       C  2.85443e+01  2.82821e+01  3.15068e+01
       H  2.82961e+01  2.76403e+01  3.06507e+01
       H  2.95871e+01  2.81066e+01  3.18045e+01
       H  2.78784e+01  2.80454e+01  3.23477e+01
       H  2.84156e+01  2.93356e+01  3.12228e+01
       C  4.83016e+01  2.47914e+01  4.23351e+01
       H  4.93644e+01  2.45149e+01  4.23064e+01
       H  4.81609e+01  2.56340e+01  4.30257e+01
       H  4.77090e+01  2.39331e+01  4.26796e+01
       H  4.79722e+01  2.50836e+01  4.13287e+01
       C  4.67863e+01  2.55294e+01  4.62687e+01
       H  4.58220e+01  2.51842e+01  4.58717e+01
       H  4.72121e+01  2.62834e+01  4.55928e+01
       H  4.74755e+01  2.46777e+01  4.63478e+01
       H  4.66354e+01  2.59723e+01  4.72625e+01
       C  2.85886e+01  5.15327e+01  2.50551e+01
       H  2.86192e+01  5.22894e+01  2.58508e+01
       H  2.76036e+01  5.10468e+01  2.50489e+01
       H  2.93669e+01  5.07790e+01  2.52364e+01
       H  2.87651e+01  5.20152e+01  2.40840e+01
       C  7.65106e+00  3.71842e+01  5.09044e+01
       H  6.94583e+00  3.75016e+01  5.01242e+01
       H  7.09803e+00  3.69473e+01  5.18235e+01
       H  8.36436e+00  3.79952e+01  5.11050e+01
       H  8.19598e+00  3.62929e+01  5.05648e+01
       C  4.76294e+01  2.97328e+01  2.29965e+01
       H  4.75018e+01  2.94082e+01  2.19548e+01
       H  4.86632e+01  3.00716e+01  2.31493e+01
       H  4.74158e+01  2.88923e+01  2.36711e+01
       H  4.69381e+01  3.05596e+01  2.32095e+01
       C  3.69856e+01  2.37504e+01  1.39112e+01
       H  3.70356e+01  2.40884e+01  1.49552e+01
       H  3.60239e+01  2.40519e+01  1.34744e+01
       H  3.70772e+01  2.26562e+01  1.38756e+01
       H  3.78059e+01  2.42056e+01  1.33395e+01
       C  4.10767e+01  1.54945e+01  3.36486e+01
       H  4.05662e+01  1.49324e+01  3.44424e+01
       H  4.05419e+01  1.64362e+01  3.34647e+01
       H  4.10916e+01  1.48959e+01  3.27276e+01
       H  4.21073e+01  1.57134e+01  3.39596e+01
       C  4.07122e+01  2.17140e+01  7.29332e+00
       H  3.97653e+01  2.14599e+01  7.78883e+00
       H  4.15520e+01  2.13397e+01  7.89449e+00
       H  4.07916e+01  2.28050e+01  7.19260e+00
       H  4.07400e+01  2.12514e+01  6.29736e+00
       C  4.89866e+01  2.61292e+01  2.53457e+01
       H  4.93273e+01  2.67002e+01  2.62201e+01
       H  4.94992e+01  2.51578e+01  2.53207e+01
       H  4.92180e+01  2.66899e+01  2.44296e+01
       H  4.79018e+01  2.59694e+01  2.54130e+01
       C  4.34648e+01  2.77160e+00  2.91167e+00
       H  4.33241e+01  2.89129e+00  3.99453e+00
       H  4.45058e+01  3.00477e+00  2.64973e+00
       H  4.27909e+01  3.45483e+00  2.37712e+00
       H  4.32384e+01  1.73553e+00  2.62529e+00
       C  5.68252e+01  1.26120e+01  4.05771e+01
       H  5.61428e+01  1.30458e+01  4.13209e+01
       H  5.77390e+01  1.22628e+01  4.10789e+01
       H  5.70854e+01  1.33751e+01  3.98305e+01
       H  5.63312e+01  1.17637e+01  4.00823e+01
       C  1.19687e+01  2.28199e+01  1.99622e+01
       H  1.19953e+01  2.38991e+01  1.97581e+01
       H  1.10573e+01  2.25755e+01  2.05247e+01
       H  1.28503e+01  2.25375e+01  2.05534e+01
       H  1.19710e+01  2.22661e+01  1.90135e+01
       C  3.77458e+01  1.39350e+01  4.51744e+01
       H  3.82517e+01  1.37428e+01  4.42184e+01
       H  3.83071e+01  1.46911e+01  4.57401e+01
       H  3.76966e+01  1.30044e+01  4.57559e+01
       H  3.67281e+01  1.43017e+01  4.49830e+01
       C  3.45798e+00  2.88207e+01  1.92772e+00
       H  4.47859e+00  2.91380e+01  1.67410e+00
       H  2.73591e+00  2.95127e+01  1.47333e+00
       H  3.33335e+00  2.88264e+01  3.01915e+00
       H  3.28384e+00  2.78061e+01  1.54450e+00
       C  6.75321e+00  2.92409e+01  5.75110e+01