LAMMPS data file. CGCMM style. atom_style full generated by VMD/TopoTools v1.5 on Wed Nov 30 12:14:08 GMT 2016
 2000 atoms
 1600 bonds
 2400 angles
 0 dihedrals
 0 impropers
 2 atom types
 1 bond types
 1 angle types
 0 dihedral types
 0 improper types
 0.0 36.72  xlo xhi
 0.0 36.72  ylo yhi
 0.0 36.72  zlo zhi

# Pair Coeffs
#
# 1  CT
# 2  HC

# Bond Coeffs
#
# 1  CT-HC

# Angle Coeffs
#
# 1  HC-CT-HC

 Masses

 1 12.011000 # CT
 2 1.008000 # HC

 Atoms

1 1 1 -0.240000 19.215160 27.094800 8.949235 # CT
2 1 2 0.060000 19.976342 26.365645 8.679279 # HC
3 1 2 0.060000 19.302926 27.336201 10.006583 # HC
4 1 2 0.060000 18.228921 26.679237 8.752741 # HC
5 1 2 0.060000 19.352421 27.998104 8.358364 # HC
6 2 1 -0.240000 24.315336 1.626546 31.346112 # CT
7 2 2 0.060000 25.196711 2.074316 30.891557 # HC
8 2 2 0.060000 23.821333 2.360539 31.979497 # HC
9 2 2 0.060000 24.612926 0.770075 31.947666 # HC
10 2 2 0.060000 23.630373 1.301248 30.565769 # HC
11 3 1 -0.240000 6.863711 15.184988 25.674219 # CT
12 3 2 0.060000 5.971645 15.792991 25.810200 # HC
13 3 2 0.060000 7.585761 15.730430 25.069985 # HC
14 3 2 0.060000 6.597294 14.257403 25.171648 # HC
15 3 2 0.060000 7.300154 14.959114 26.645006 # HC
16 4 1 -0.240000 13.387216 31.719885 27.753770 # CT
17 4 2 0.060000 13.181845 31.338080 28.751763 # HC
18 4 2 0.060000 13.453198 30.889181 27.054099 # HC
19 4 2 0.060000 14.329382 32.264172 27.760436 # HC
20 4 2 0.060000 12.584475 32.388097 27.448766 # HC
21 5 1 -0.240000 35.381100 14.977037 14.141840 # CT
22 5 2 0.060000 36.305883 15.366776 14.562342 # HC
23 5 2 0.060000 35.613315 14.241810 13.374064 # HC
24 5 2 0.060000 34.810509 15.792615 13.702264 # HC
25 5 2 0.060000 34.794687 14.506955 14.928650 # HC
26 6 1 -0.240000 18.701467 29.396140 2.994356 # CT
27 6 2 0.060000 19.571258 28.804982 2.715184 # HC
28 6 2 0.060000 18.146116 29.669263 2.099397 # HC
29 6 2 0.060000 19.026018 30.298129 3.509188 # HC
30 6 2 0.060000 18.062474 28.812225 3.653643 # HC
31 7 1 -0.240000 25.583716 3.379938 9.312197 # CT
32 7 2 0.060000 26.029525 3.778053 10.221427 # HC
33 7 2 0.060000 26.369867 3.123519 8.604963 # HC
34 7 2 0.060000 24.929212 4.128952 8.871095 # HC
35 7 2 0.060000 25.006267 2.489250 9.551266 # HC
36 8 1 -0.240000 23.578066 20.025445 26.417649 # CT
37 8 2 0.060000 22.719468 20.376773 25.849037 # HC
38 8 2 0.060000 24.493738 20.292146 25.893839 # HC
39 8 2 0.060000 23.523771 18.944066 26.525545 # HC
40 8 2 0.060000 23.575310 20.488764 27.402156 # HC
41 9 1 -0.240000 31.352633 0.877857 10.835129 # CT
42 9 2 0.060000 31.641048 0.898655 11.884093 # HC
43 9 2 0.060000 30.563004 0.143315 10.690575 # HC
44 9 2 0.060000 32.214101 0.608645 10.227373 # HC
45 9 2 0.060000 30.992387 1.860779 10.538454 # HC
46 10 1 -0.240000 21.373283 30.001756 25.549415 # CT
47 10 2 0.060000 20.901073 29.159230 25.048307 # HC
48 10 2 0.060000 21.998334 30.541315 24.840789 # HC
49 10 2 0.060000 21.987266 29.637620 26.370633 # HC
50 10 2 0.060000 20.606501 30.668859 25.937934 # HC
51 11 1 -0.240000 15.838426 2.945352 15.105977 # CT
52 11 2 0.060000 15.309635 3.887617 15.234267 # HC
53 11 2 0.060000 15.801724 2.379487 16.034639 # HC
54 11 2 0.060000 16.875421 3.144247 14.843200 # HC
55 11 2 0.060000 15.366959 2.370051 14.311827 # HC
56 12 1 -0.240000 29.767577 11.718424 0.732143 # CT
57 12 2 0.060000 28.915952 11.773382 0.057121 # HC
58 12 2 0.060000 29.729234 10.784475 1.289127 # HC
59 12 2 0.060000 29.735148 12.556046 1.425906 # HC
60 12 2 0.060000 30.689968 11.759792 0.156459 # HC
61 13 1 -0.240000 5.830924 3.467213 9.864869 # CT
62 13 2 0.060000 6.220167 2.881729 9.034424 # HC
63 13 2 0.060000 4.755665 3.318809 9.940734 # HC
64 13 2 0.060000 6.040474 4.521368 9.695115 # HC
65 13 2 0.060000 6.307366 3.146977 10.789196 # HC
66 14 1 -0.240000 27.046358 1.943802 12.871443 # CT
67 14 2 0.060000 27.058984 2.618322 12.017742 # HC
68 14 2 0.060000 27.436526 0.973050 12.572491 # HC
69 14 2 0.060000 26.024863 1.829796 13.228542 # HC
70 14 2 0.060000 27.665034 2.354006 13.666993 # HC
71 15 1 -0.240000 10.638449 31.996245 5.031324 # CT
72 15 2 0.060000 11.188578 31.145047 4.635391 # HC
73 15 2 0.060000 11.287024 32.574363 5.686375 # HC
74 15 2 0.060000 9.777501 31.641586 5.594311 # HC
75 15 2 0.060000 10.300687 32.623983 4.209260 # HC
76 16 1 -0.240000 31.083788 27.486177 5.625756 # CT
77 16 2 0.060000 30.521747 27.528865 6.556470 # HC
78 16 2 0.060000 31.100235 28.472435 5.166423 # HC
79 16 2 0.060000 30.610380 26.778423 4.948304 # HC
80 16 2 0.060000 32.102766 27.164990 5.831789 # HC
81 17 1 -0.240000 1.985438 8.402151 30.258933 # CT
82 17 2 0.060000 1.173266 8.817198 29.665592 # HC
83 17 2 0.060000 2.035347 8.917267 31.216078 # HC
84 17 2 0.060000 2.926026 8.532230 29.727574 # HC
85 17 2 0.060000 1.807146 7.341933 30.426498 # HC
86 18 1 -0.240000 29.515775 10.199597 25.922120 # CT
87 18 2 0.060000 29.888230 9.317224 26.438490 # HC
88 18 2 0.060000 28.788542 9.899900 25.170271 # HC
89 18 2 0.060000 30.344349 10.714624 25.440268 # HC
90 18 2 0.060000 29.041988 10.866642 26.639410 # HC
91 19 1 -0.240000 33.174560 20.404936 30.864273 # CT
92 19 2 0.060000 33.871371 20.687971 30.077961 # HC
93 19 2 0.060000 32.968457 21.267912 31.494159 # HC
94 19 2 0.060000 33.611187 19.611592 31.467540 # HC
95 19 2 0.060000 32.247239 20.052272 30.417473 # HC
96 20 1 -0.240000 2.642565 22.285209 12.017393 # CT
97 20 2 0.060000 1.746216 22.256077 11.401236 # HC
98 20 2 0.060000 2.694566 21.383964 12.624859 # HC
99 20 2 0.060000 2.608673 23.158265 12.665926 # HC
100 20 2 0.060000 3.520802 22.342533 11.377595 # HC
101 21 1 -0.240000 11.263863 24.340179 9.578581 # CT
102 21 2 0.060000 12.284780 24.634846 9.812764 # HC
103 21 2 0.060000 11.224800 23.264905 9.416647 # HC
104 21 2 0.060000 10.935377 24.854769 8.677879 # HC
105 21 2 0.060000 10.610488 24.606181 10.406997 # HC
106 22 1 -0.240000 4.651243 12.129480 35.980826 # CT
107 22 2 0.060000 4.570864 11.051599 35.855714 # HC
108 22 2 0.060000 4.914342 12.586472 35.029039 # HC
109 22 2 0.060000 5.421942 12.352843 36.715742 # HC
110 22 2 0.060000 3.697861 12.527025 36.322805 # HC
111 23 1 -0.240000 10.512127 10.363135 21.354056 # CT
112 23 2 0.060000 10.847421 11.012682 20.548073 # HC
113 23 2 0.060000 11.209456 9.535498 21.466802 # HC
114 23 2 0.060000 9.523184 9.974743 21.119297 # HC
115 23 2 0.060000 10.468437 10.929579 22.282044 # HC
116 24 1 -0.240000 11.489561 29.158988 35.488813 # CT
117 24 2 0.060000 12.230692 28.983790 34.711656 # HC
118 24 2 0.060000 11.743989 30.065025 36.035006 # HC
119 24 2 0.060000 11.476056 28.314015 36.174238 # HC
120 24 2 0.060000 10.507521 29.273122 35.034392 # HC
121 25 1 -0.240000 28.690651 15.211668 20.762264 # CT
122 25 2 0.060000 28.063167 14.625239 21.430325 # HC
123 25 2 0.060000 29.528467 15.624273 21.320641 # HC
124 25 2 0.060000 28.105483 16.022944 20.334037 # HC
125 25 2 0.060000 29.065492 14.574256 19.964060 # HC
126 26 1 -0.240000 29.685232 24.839654 7.958135 # CT
127 26 2 0.060000 29.585915 25.557883 7.146825 # HC
128 26 2 0.060000 28.854591 24.957930 8.650961 # HC
129 26 2 0.060000 30.622634 25.012548 8.482879 # HC
130 26 2 0.060000 29.677797 23.830269 7.551914 # HC
131 27 1 -0.240000 30.779132 34.564674 15.907166 # CT
132 27 2 0.060000 30.742521 34.800747 16.968708 # HC
133 27 2 0.060000 31.711579 34.051164 15.681752 # HC
134 27 2 0.060000 30.722741 35.484647 15.328858 # HC
135 27 2 0.060000 29.939716 33.922159 15.649323 # HC
136 28 1 -0.240000 19.720429 6.380685 6.339403 # CT
137 28 2 0.060000 19.895239 5.741750 7.202620 # HC
138 28 2 0.060000 18.983539 5.915979 5.687479 # HC
139 28 2 0.060000 20.652268 6.516923 5.794348 # HC
140 28 2 0.060000 19.350681 7.348075 6.673127 # HC
141 29 1 -0.240000 4.989262 10.233128 8.618627 # CT
142 29 2 0.060000 4.546583 9.342810 8.176688 # HC
143 29 2 0.060000 5.471970 9.970250 9.557696 # HC
144 29 2 0.060000 4.211339 10.970801 8.804757 # HC
145 29 2 0.060000 5.727138 10.648665 7.935404 # HC
146 30 1 -0.240000 32.987639 5.305758 4.201285 # CT
147 30 2 0.060000 33.513554 4.729842 4.960018 # HC
148 30 2 0.060000 32.441519 4.629723 3.546539 # HC
149 30 2 0.060000 33.706111 5.875996 3.615968 # HC
150 30 2 0.060000 32.289382 5.987466 4.682575 # HC
151 31 1 -0.240000 19.647846 25.023010 6.449340 # CT
152 31 2 0.060000 20.313721 24.296615 6.910753 # HC
153 31 2 0.060000 18.645326 24.605245 6.383108 # HC
154 31 2 0.060000 20.007871 25.262013 5.450726 # HC
155 31 2 0.060000 19.624452 25.928159 7.052735 # HC
156 32 1 -0.240000 16.855825 32.429360 19.582865 # CT
157 32 2 0.060000 17.718506 32.670684 18.965220 # HC
158 32 2 0.060000 16.430390 33.346194 19.985831 # HC
159 32 2 0.060000 17.165309 31.782749 20.401452 # HC
160 32 2 0.060000 16.109098 31.917820 18.979000 # HC
161 33 1 -0.240000 25.816590 3.748012 24.582532 # CT
162 33 2 0.060000 24.882090 4.240496 24.321550 # HC
163 33 2 0.060000 25.606197 2.754578 24.973410 # HC
164 33 2 0.060000 26.335894 4.332907 25.338965 # HC
165 33 2 0.060000 26.442185 3.664058 23.696242 # HC
166 34 1 -0.240000 5.806540 17.399770 7.558007 # CT
167 34 2 0.060000 5.637638 16.427183 7.100308 # HC
168 34 2 0.060000 5.046104 17.581472 8.314766 # HC
169 34 2 0.060000 5.751579 18.173972 6.795405 # HC
170 34 2 0.060000 6.790807 17.416484 8.021543 # HC
171 35 1 -0.240000 7.895085 7.646243 24.874555 # CT
172 35 2 0.060000 8.325811 8.392092 24.209630 # HC
173 35 2 0.060000 7.187683 7.032142 24.321000 # HC
174 35 2 0.060000 7.379800 8.144510 25.693201 # HC
175 35 2 0.060000 8.687005 7.016231 25.274398 # HC
176 36 1 -0.240000 13.533219 12.477829 23.946915 # CT
177 36 2 0.060000 13.166322 11.655424 24.557634 # HC
178 36 2 0.060000 13.918642 13.264784 24.591984 # HC
179 36 2 0.060000 12.719190 12.871290 23.341509 # HC
180 36 2 0.060000 14.328700 12.119856 23.296536 # HC
181 37 1 -0.240000 31.929517 7.981771 10.934390 # CT
182 37 2 0.060000 31.322593 7.143402 10.598649 # HC
183 37 2 0.060000 31.718342 8.185800 11.982120 # HC
184 37 2 0.060000 31.693960 8.861498 10.338938 # HC
185 37 2 0.060000 32.983154 7.736419 10.817863 # HC
186 38 1 -0.240000 9.908415 28.902167 8.272336 # CT
187 38 2 0.060000 10.537058 28.761478 7.395435 # HC
188 38 2 0.060000 10.536159 29.033415 9.151354 # HC
189 38 2 0.060000 9.273402 28.028939 8.407254 # HC
190 38 2 0.060000 9.287040 29.784806 8.135330 # HC
191 39 1 -0.240000 35.586301 22.331132 34.175633 # CT
192 39 2 0.060000 35.582407 23.043756 34.997883 # HC
193 39 2 0.060000 36.443267 22.523231 33.533240 # HC
194 39 2 0.060000 34.669697 22.437622 33.599033 # HC
195 39 2 0.060000 35.649826 21.319936 34.572337 # HC
196 40 1 -0.240000 28.416674 30.953374 16.452347 # CT
197 40 2 0.060000 28.110782 30.709395 17.467653 # HC
198 40 2 0.060000 28.536062 32.030828 16.358529 # HC
199 40 2 0.060000 27.657449 30.610289 15.752461 # HC
200 40 2 0.060000 29.362374 30.463007 16.230722 # HC
201 41 1 -0.240000 21.654790 22.452685 23.396342 # CT
202 41 2 0.060000 21.601444 23.280621 22.692341 # HC
203 41 2 0.060000 20.750046 22.431402 24.000451 # HC
204 41 2 0.060000 22.519988 22.581963 24.043404 # HC
205 41 2 0.060000 21.747683 21.516763 22.849214 # HC
206 42 1 -0.240000 13.766658 17.921504 23.888838 # CT
207 42 2 0.060000 14.257051 18.655014 23.252112 # HC
208 42 2 0.060000 13.077273 18.428048 24.561240 # HC
209 42 2 0.060000 14.515412 17.388404 24.471196 # HC
210 42 2 0.060000 13.216903 17.214551 23.270844 # HC
211 43 1 -0.240000 7.042720 33.270260 3.124018 # CT
212 43 2 0.060000 6.803592 32.221607 3.288599 # HC
213 43 2 0.060000 7.077509 33.470912 2.055144 # HC
214 43 2 0.060000 8.010737 33.495386 3.566996 # HC
215 43 2 0.060000 6.279076 33.893143 3.585313 # HC
216 44 1 -0.240000 7.677028 25.482565 10.195404 # CT
217 44 2 0.060000 7.188963 25.393578 11.163812 # HC
218 44 2 0.060000 7.119289 26.177209 9.570617 # HC
219 44 2 0.060000 7.708758 24.507146 9.714237 # HC
220 44 2 0.060000 8.691082 25.852312 10.332916 # HC
221 45 1 -0.240000 23.392882 9.018206 15.712192 # CT
222 45 2 0.060000 22.816625 9.940854 15.736483 # HC
223 45 2 0.060000 24.424725 9.241855 15.449050 # HC
224 45 2 0.060000 22.967541 8.344318 14.971294 # HC
225 45 2 0.060000 23.362653 8.545785 16.691902 # HC
226 46 1 -0.240000 17.830445 29.151142 28.902015 # CT
227 46 2 0.060000 16.856682 29.331801 28.451363 # HC
228 46 2 0.060000 17.854825 29.585703 29.899274 # HC
229 46 2 0.060000 18.604406 29.607709 28.288419 # HC
230 46 2 0.060000 18.005892 28.079388 28.969014 # HC
231 47 1 -0.240000 35.864857 9.456547 16.261458 # CT
232 47 2 0.060000 36.627129 9.358631 17.031715 # HC
233 47 2 0.060000 35.896385 8.587522 15.607423 # HC
234 47 2 0.060000 36.051697 10.356145 15.678548 # HC
235 47 2 0.060000 34.884229 9.523896 16.728107 # HC
236 48 1 -0.240000 32.342902 18.236642 6.825334 # CT
237 48 2 0.060000 31.982638 19.095872 7.387362 # HC
238 48 2 0.060000 32.861084 18.579008 5.931893 # HC
239 48 2 0.060000 31.499793 17.611460 6.538481 # HC
240 48 2 0.060000 33.028076 17.660223 7.443561 # HC
241 49 1 -0.240000 2.273720 5.381944 33.349984 # CT
242 49 2 0.060000 1.378690 4.803349 33.130691 # HC
243 49 2 0.060000 2.060571 6.441499 33.223994 # HC
244 49 2 0.060000 3.070764 5.088932 32.669665 # HC
245 49 2 0.060000 2.584873 5.194019 34.375555 # HC
246 50 1 -0.240000 4.857320 14.527672 30.977512 # CT
247 50 2 0.060000 4.441692 15.521547 31.130511 # HC
248 50 2 0.060000 5.878293 14.499786 31.352744 # HC
249 50 2 0.060000 4.854885 14.293136 29.914988 # HC
250 50 2 0.060000 4.254442 13.796217 31.511777 # HC
251 51 1 -0.240000 19.903193 15.023900 17.009477 # CT
252 51 2 0.060000 20.286285 15.425780 16.073702 # HC
253 51 2 0.060000 20.645798 14.362553 17.451200 # HC
254 51 2 0.060000 18.989072 14.465841 16.817323 # HC
255 51 2 0.060000 19.691610 15.841385 17.695683 # HC
256 52 1 -0.240000 16.278011 25.648974 9.224490 # CT
257 52 2 0.060000 15.232378 25.351048 9.181690 # HC
258 52 2 0.060000 16.792550 25.295801 8.333153 # HC
259 52 2 0.060000 16.742896 25.215180 10.107482 # HC
260 52 2 0.060000 16.344251 26.733835 9.275638 # HC
261 53 1 -0.240000 16.725019 7.255554 11.954177 # CT
262 53 2 0.060000 17.003613 7.072200 10.918461 # HC
263 53 2 0.060000 16.006953 6.503686 12.275171 # HC
264 53 2 0.060000 16.278097 8.243916 12.040033 # HC
265 53 2 0.060000 17.611373 7.202426 12.583050 # HC
266 54 1 -0.240000 27.499887 10.563768 1.423239 # CT
267 54 2 0.060000 27.079016 11.394881 1.985430 # HC
268 54 2 0.060000 26.972212 9.647637 1.680581 # HC
269 54 2 0.060000 28.554319 10.456353 1.669420 # HC
270 54 2 0.060000 27.394021 10.756169 0.357546 # HC
271 55 1 -0.240000 5.820542 7.548096 21.282765 # CT
272 55 2 0.060000 6.432155 7.931653 20.468668 # HC
273 55 2 0.060000 5.999291 8.137720 22.179623 # HC
274 55 2 0.060000 6.081210 6.509103 21.473858 # HC
275 55 2 0.060000 4.769532 7.613889 21.008945 # HC
276 56 1 -0.240000 23.527844 22.102604 34.839004 # CT
277 56 2 0.060000 23.802145 23.056748 35.284325 # HC
278 56 2 0.060000 24.022410 21.296005 35.376372 # HC
279 56 2 0.060000 23.837400 22.086794 33.795982 # HC
280 56 2 0.060000 22.449451 21.970848 34.899318 # HC
281 57 1 -0.240000 9.988654 6.437878 21.442330 # CT
282 57 2 0.060000 9.594241 7.450929 21.488244 # HC
283 57 2 0.060000 10.335480 6.229117 20.432334 # HC
284 57 2 0.060000 9.205711 5.731342 21.710243 # HC
285 57 2 0.060000 10.819164 6.340096 22.138477 # HC
286 58 1 -0.240000 11.318286 13.807405 13.647900 # CT
287 58 2 0.060000 11.057022 12.771346 13.853480 # HC
288 58 2 0.060000 11.220567 14.393796 14.559250 # HC
289 58 2 0.060000 10.650306 14.205771 12.886929 # HC
290 58 2 0.060000 12.345218 13.858736 13.291944 # HC
291 59 1 -0.240000 21.652102 4.727139 3.706946 # CT
292 59 2 0.060000 21.584590 5.450366 4.517085 # HC
293 59 2 0.060000 22.565920 4.899593 3.142005 # HC
294 59 2 0.060000 20.792563 4.838180 3.049046 # HC
295 59 2 0.060000 21.665332 3.720430 4.119608 # HC
296 60 1 -0.240000 35.069992 6.444222 4.848016 # CT
297 60 2 0.060000 36.155260 6.489568 4.784141 # HC
298 60 2 0.060000 34.635466 7.155701 4.148768 # HC
299 60 2 0.060000 34.755548 6.691913 5.859818 # HC
300 60 2 0.060000 34.733676 5.439740 4.599350 # HC
301 61 1 -0.240000 12.772339 28.192736 12.671143 # CT
302 61 2 0.060000 12.541194 27.341207 13.307863 # HC
303 61 2 0.060000 11.855182 28.571025 12.224286 # HC
304 61 2 0.060000 13.457626 27.882354 11.885004 # HC
305 61 2 0.060000 13.235349 28.976352 13.267377 # HC
306 62 1 -0.240000 32.559065 13.493520 21.472029 # CT
307 62 2 0.060000 33.196484 14.052893 20.790310 # HC
308 62 2 0.060000 33.161277 13.091795 22.284383 # HC
309 62 2 0.060000 32.082958 12.675794 20.934798 # HC
310 62 2 0.060000 31.795548 14.153556 21.878627 # HC
311 63 1 -0.240000 26.936986 10.208102 12.317797 # CT
312 63 2 0.060000 26.951532 9.459515 11.528274 # HC
313 63 2 0.060000 27.350810 11.141097 11.940661 # HC
314 63 2 0.060000 27.533806 9.860231 13.158488 # HC
315 63 2 0.060000 25.911833 10.371577 12.643781 # HC
316 64 1 -0.240000 24.383237 23.611000 25.149078 # CT
317 64 2 0.060000 23.856339 22.913753 25.797281 # HC
318 64 2 0.060000 24.525667 24.554892 25.671326 # HC
319 64 2 0.060000 23.798677 23.780189 24.247061 # HC
320 64 2 0.060000 25.352244 23.195200 24.880633 # HC
321 65 1 -0.240000 20.179352 35.344983 30.613488 # CT
322 65 2 0.060000 19.812876 36.320475 30.300356 # HC
323 65 2 0.060000 20.837366 35.463197 31.471978 # HC
324 65 2 0.060000 20.729602 34.884544 29.795447 # HC
325 65 2 0.060000 19.337606 34.711708 30.886167 # HC
326 66 1 -0.240000 3.292297 11.483688 14.754538 # CT
327 66 2 0.060000 3.169292 10.403023 14.785762 # HC
328 66 2 0.060000 3.138056 11.895197 15.749944 # HC
329 66 2 0.060000 2.564517 11.911892 14.068282 # HC
330 66 2 0.060000 4.297290 11.724662 14.414172 # HC
331 67 1 -0.240000 14.243406 29.413830 32.749914 # CT
332 67 2 0.060000 14.670639 29.273541 33.740737 # HC
333 67 2 0.060000 15.037038 29.389317 32.005932 # HC
334 67 2 0.060000 13.735387 30.375092 32.706761 # HC
335 67 2 0.060000 13.530570 28.617404 32.546203 # HC
336 68 1 -0.240000 32.160540 28.099239 30.767124 # CT
337 68 2 0.060000 32.960433 27.865138 30.067619 # HC
338 68 2 0.060000 32.584784 28.303552 31.748060 # HC
339 68 2 0.060000 31.479453 27.253421 30.835548 # HC
340 68 2 0.060000 31.617482 28.974819 30.417301 # HC
341 69 1 -0.240000 29.903170 25.977562 14.741352 # CT
342 69 2 0.060000 30.556219 25.390275 14.099043 # HC
343 69 2 0.060000 30.475720 26.777364 15.206611 # HC
344 69 2 0.060000 29.481781 25.336783 15.513235 # HC
345 69 2 0.060000 29.098967 26.405827 14.146563 # HC
346 70 1 -0.240000 18.882577 21.514696 34.533924 # CT
347 70 2 0.060000 17.794871 21.486415 34.540109 # HC
348 70 2 0.060000 19.266869 20.859551 35.313069 # HC
349 70 2 0.060000 19.219977 22.532820 34.717099 # HC
350 70 2 0.060000 19.248609 21.180013 33.565453 # HC
351 71 1 -0.240000 1.990215 13.990931 21.362846 # CT
352 71 2 0.060000 2.123718 13.159025 22.051359 # HC
353 71 2 0.060000 2.666121 13.874654 20.518102 # HC
354 71 2 0.060000 2.208574 14.925183 21.876133 # HC
355 71 2 0.060000 0.962480 14.004890 21.005785 # HC
356 72 1 -0.240000 28.991755 27.388030 26.045324 # CT
357 72 2 0.060000 28.482995 27.953658 26.823250 # HC
358 72 2 0.060000 29.292446 28.061279 25.245146 # HC
359 72 2 0.060000 28.318702 26.630760 25.648445 # HC
360 72 2 0.060000 29.872858 26.906421 26.464415 # HC
361 73 1 -0.240000 5.915405 13.638745 26.750768 # CT
362 73 2 0.060000 5.330516 14.536777 26.562664 # HC
363 73 2 0.060000 6.143930 13.150179 25.805759 # HC
364 73 2 0.060000 5.344987 12.959862 27.381411 # HC
365 73 2 0.060000 6.842172 13.908124 27.253229 # HC
366 74 1 -0.240000 7.892037 3.533885 14.184249 # CT
367 74 2 0.060000 8.855440 3.096029 13.931115 # HC
368 74 2 0.060000 7.287364 2.799439 14.712381 # HC
369 74 2 0.060000 7.380634 3.836884 13.272860 # HC
370 74 2 0.060000 8.044673 4.403172 14.820622 # HC
371 75 1 -0.240000 29.200617 10.346183 28.546546 # CT
372 75 2 0.060000 28.991085 10.319787 29.613945 # HC
373 75 2 0.060000 29.740898 11.259383 28.305457 # HC
374 75 2 0.060000 28.264490 10.321593 27.992442 # HC
375 75 2 0.060000 29.805976 9.484000 28.274318 # HC
376 76 1 -0.240000 20.587335 20.792534 25.136715 # CT
377 76 2 0.060000 20.049776 19.890877 24.850382 # HC
378 76 2 0.060000 21.299832 20.555382 25.924159 # HC
379 76 2 0.060000 19.880720 21.536472 25.498962 # HC
380 76 2 0.060000 21.119004 21.187421 24.273396 # HC
381 77 1 -0.240000 8.608469 20.475661 15.392809 # CT
382 77 2 0.060000 7.671461 20.718297 14.895733 # HC
383 77 2 0.060000 8.447131 20.428472 16.467846 # HC
384 77 2 0.060000 9.346583 21.243516 15.170195 # HC
385 77 2 0.060000 8.968718 19.512388 15.037486 # HC
386 78 1 -0.240000 10.106571 16.481439 4.074334 # CT
387 78 2 0.060000 10.661241 16.938175 3.257221 # HC
388 78 2 0.060000 9.089140 16.867099 4.082235 # HC
389 78 2 0.060000 10.591626 16.718453 5.019065 # HC
390 78 2 0.060000 10.084263 15.402053 3.938847 # HC
391 79 1 -0.240000 6.164991 8.835027 14.568226 # CT
392 79 2 0.060000 7.212661 8.870562 14.859888 # HC
393 79 2 0.060000 6.090938 8.821833 13.482729 # HC
394 79 2 0.060000 5.650541 9.711822 14.956221 # HC
395 79 2 0.060000 5.705808 7.935922 14.974046 # HC
396 80 1 -0.240000 23.943130 21.989513 8.164752 # CT
397 80 2 0.060000 24.347176 22.591877 7.353676 # HC
398 80 2 0.060000 24.533381 21.081629 8.271107 # HC
399 80 2 0.060000 22.910890 21.727018 7.942162 # HC
400 80 2 0.060000 23.981055 22.557492 9.092055 # HC
401 81 1 -0.240000 34.582324 7.644318 16.432738 # CT
402 81 2 0.060000 34.409295 6.757201 15.826913 # HC
403 81 2 0.060000 34.750823 8.500357 15.782531 # HC
404 81 2 0.060000 35.456462 7.489079 17.061828 # HC
405 81 2 0.060000 33.712754 7.830656 17.059679 # HC
406 82 1 -0.240000 10.752931 30.985617 16.548346 # CT
407 82 2 0.060000 10.483361 30.100866 17.121485 # HC
408 82 2 0.060000 9.967815 31.203771 15.827261 # HC
409 82 2 0.060000 11.688531 30.806056 16.022628 # HC
410 82 2 0.060000 10.872024 31.831770 17.221970 # HC
411 83 1 -0.240000 11.762008 24.556354 13.407493 # CT
412 83 2 0.060000 11.983529 25.381375 12.733542 # HC
413 83 2 0.060000 12.628685 23.902144 13.477084 # HC
414 83 2 0.060000 10.912691 23.993770 13.025222 # HC
415 83 2 0.060000 11.523124 24.948087 14.394107 # HC
416 84 1 -0.240000 4.123194 10.599218 29.162589 # CT
417 84 2 0.060000 3.477561 10.715552 28.294508 # HC
418 84 2 0.060000 4.618864 9.631559 29.118881 # HC
419 84 2 0.060000 3.525556 10.659935 30.069844 # HC
420 84 2 0.060000 4.870786 11.389796 29.167152 # HC
421 85 1 -0.240000 25.587037 6.932337 33.760330 # CT
422 85 2 0.060000 25.650085 6.703952 32.698348 # HC
423 85 2 0.060000 26.530245 6.682201 34.241736 # HC
424 85 2 0.060000 24.784985 6.350183 34.209529 # HC
425 85 2 0.060000 25.382834 7.992979 33.891736 # HC
426 86 1 -0.240000 19.871278 2.917542 0.596589 # CT
427 86 2 0.060000 20.620737 2.619249 1.326845 # HC
428 86 2 0.060000 19.010502 3.339024 1.111740 # HC
429 86 2 0.060000 19.559639 2.048353 0.020948 # HC
430 86 2 0.060000 20.294196 3.663520 -0.073176 # HC
431 87 1 -0.240000 18.850222 18.385566 26.119694 # CT
432 87 2 0.060000 19.120266 18.428074 27.172884 # HC
433 87 2 0.060000 18.459750 17.397436 25.884976 # HC
434 87 2 0.060000 19.730797 18.581496 25.511280 # HC
435 87 2 0.060000 18.090095 19.135234 25.909610 # HC
436 88 1 -0.240000 16.209389 20.000330 20.124626 # CT
437 88 2 0.060000 15.452039 19.708830 19.399788 # HC
438 88 2 0.060000 16.140902 19.356892 20.999417 # HC
439 88 2 0.060000 16.048137 21.034619 20.421633 # HC
440 88 2 0.060000 17.196466 19.900995 19.677702 # HC
441 89 1 -0.240000 24.936598 15.244845 1.401715 # CT
442 89 2 0.060000 24.600484 14.221160 1.249935 # HC
443 89 2 0.060000 24.495121 15.640002 2.314355 # HC
444 89 2 0.060000 24.629530 15.856599 0.555881 # HC
445 89 2 0.060000 26.021230 15.261649 1.486687 # HC
446 90 1 -0.240000 27.274224 21.400201 25.317879 # CT
447 90 2 0.060000 26.945004 22.006132 26.159546 # HC
448 90 2 0.060000 27.723098 22.042002 24.562521 # HC
449 90 2 0.060000 26.420170 20.879115 24.890058 # HC
450 90 2 0.060000 28.008605 20.673560 25.659354 # HC
451 91 1 -0.240000 12.862220 32.741875 6.984989 # CT
452 91 2 0.060000 12.518687 33.774173 7.001946 # HC
453 91 2 0.060000 12.705099 32.291223 7.962838 # HC
454 91 2 0.060000 13.922057 32.716293 6.739916 # HC
455 91 2 0.060000 12.303070 32.185802 6.235282 # HC
456 92 1 -0.240000 27.787236 22.657233 29.843248 # CT
457 92 2 0.060000 27.971517 23.678251 29.515371 # HC
458 92 2 0.060000 28.675570 22.269042 30.337345 # HC
459 92 2 0.060000 27.551164 22.036517 28.981302 # HC
460 92 2 0.060000 26.950714 22.645091 30.538958 # HC
461 93 1 -0.240000 8.898039 3.562202 35.943612 # CT
462 93 2 0.060000 9.948873 3.280679 35.922773 # HC
463 93 2 0.060000 8.764955 4.418579 36.601540 # HC
464 93 2 0.060000 8.305943 2.726715 36.311516 # HC
465 93 2 0.060000 8.572365 3.822831 34.938656 # HC
466 94 1 -0.240000 31.735653 26.151267 11.643076 # CT
467 94 2 0.060000 30.874215 26.624093 11.175847 # HC
468 94 2 0.060000 32.626562 26.743580 11.444562 # HC
469 94 2 0.060000 31.866492 25.151287 11.234554 # HC
470 94 2 0.060000 31.575372 26.086093 12.717316 # HC
471 95 1 -0.240000 32.476301 32.504903 1.189036 # CT
472 95 2 0.060000 32.569609 33.038404 2.132758 # HC
473 95 2 0.060000 31.718318 31.730025 1.283846 # HC
474 95 2 0.060000 33.430920 32.049194 0.934081 # HC
475 95 2 0.060000 32.186367 33.201947 0.405457 # HC
476 96 1 -0.240000 29.493613 25.063267 31.759126 # CT
477 96 2 0.060000 28.795978 25.382219 30.987428 # HC
478 96 2 0.060000 28.945787 24.833100 32.670648 # HC
479 96 2 0.060000 30.206364 25.861486 31.956103 # HC
480 96 2 0.060000 30.026325 24.176287 31.422358 # HC
481 97 1 -0.240000 24.442730 26.718418 24.363839 # CT
482 97 2 0.060000 24.254333 26.622642 23.296471 # HC
483 97 2 0.060000 25.399520 27.212393 24.520376 # HC
484 97 2 0.060000 24.466268 25.729964 24.818124 # HC
485 97 2 0.060000 23.650832 27.308652 24.820402 # HC
486 98 1 -0.240000 5.008597 4.821551 11.631682 # CT
487 98 2 0.060000 5.092096 4.808157 12.716481 # HC
488 98 2 0.060000 4.000666 4.531633 11.341884 # HC
489 98 2 0.060000 5.724210 4.122198 11.204162 # HC
490 98 2 0.060000 5.217412 5.824181 11.264180 # HC
491 99 1 -0.240000 10.930448 14.318568 16.863129 # CT
492 99 2 0.060000 10.422453 13.767420 17.651872 # HC
493 99 2 0.060000 10.402038 15.250717 16.673806 # HC
494 99 2 0.060000 10.946511 13.719809 15.954724 # HC
495 99 2 0.060000 11.950770 14.536333 17.172076 # HC
496 100 1 -0.240000 32.984156 2.527581 0.927484 # CT
497 100 2 0.060000 32.013644 2.767786 1.356844 # HC
498 100 2 0.060000 33.575347 1.974163 1.654246 # HC
499 100 2 0.060000 33.501895 3.447601 0.663895 # HC
500 100 2 0.060000 32.845770 1.920792 0.034968 # HC
501 101 1 -0.240000 29.565333 13.341879 6.028501 # CT
502 101 2 0.060000 30.005655 13.827940 6.896720 # HC
503 101 2 0.060000 30.169220 12.480714 5.749797 # HC
504 101 2 0.060000 29.530511 14.044402 5.198309 # HC
505 101 2 0.060000 28.555968 13.014462 6.269144 # HC
506 102 1 -0.240000 27.680709 25.847025 11.797651 # CT
507 102 2 0.060000 27.531917 25.971764 12.868279 # HC
508 102 2 0.060000 28.713744 26.077940 11.545699 # HC
509 102 2 0.060000 27.016817 26.519650 11.258400 # HC
510 102 2 0.060000 27.460368 24.818780 11.518206 # HC
511 103 1 -0.240000 14.248964 35.082499 26.237611 # CT
512 103 2 0.060000 13.635823 35.796368 26.783862 # HC
513 103 2 0.060000 15.287946 35.188345 26.543023 # HC
514 103 2 0.060000 14.163571 35.273410 25.169795 # HC
515 103 2 0.060000 13.908546 34.071889 26.453736 # HC
516 104 1 -0.240000 17.441663 18.052043 7.155580 # CT
517 104 2 0.060000 17.716920 19.093791 7.004127 # HC
518 104 2 0.060000 16.359351 17.951873 7.105291 # HC
519 104 2 0.060000 17.791402 17.722737 8.131905 # HC
520 104 2 0.060000 17.898957 17.439764 6.381032 # HC
521 105 1 -0.240000 8.428668 13.091193 33.020099 # CT
522 105 2 0.060000 8.929661 12.699114 32.137363 # HC
523 105 2 0.060000 8.985223 13.943523 33.404472 # HC
524 105 2 0.060000 8.378790 12.316781 33.782836 # HC
525 105 2 0.060000 7.421018 13.405351 32.755761 # HC
526 106 1 -0.240000 2.365398 33.581047 29.950822 # CT
527 106 2 0.060000 3.387316 33.873550 29.718301 # HC
528 106 2 0.060000 1.673152 34.276258 29.480249 # HC
529 106 2 0.060000 2.219659 33.598063 31.028988 # HC
530 106 2 0.060000 2.181442 32.576344 29.575775 # HC
531 107 1 -0.240000 11.149384 33.144469 23.569023 # CT
532 107 2 0.060000 11.774007 32.714200 22.788858 # HC
533 107 2 0.060000 11.749723 33.805165 24.191146 # HC
534 107 2 0.060000 10.734118 32.347196 24.182112 # HC
535 107 2 0.060000 10.339698 33.711306 23.114015 # HC
536 108 1 -0.240000 17.452140 17.659793 20.440090 # CT
537 108 2 0.060000 18.004191 17.176887 21.243821 # HC
538 108 2 0.060000 17.436779 17.008701 19.568422 # HC
539 108 2 0.060000 17.935333 18.599959 20.182058 # HC
540 108 2 0.060000 16.432278 17.853635 20.766026 # HC
541 109 1 -0.240000 30.348488 15.556912 26.472822 # CT
542 109 2 0.060000 29.582257 15.566649 25.700335 # HC
543 109 2 0.060000 30.201366 14.693728 27.118756 # HC
544 109 2 0.060000 30.279450 16.468010 27.063672 # HC
545 109 2 0.060000 31.330868 15.499266 26.008565 # HC
546 110 1 -0.240000 29.315902 16.093357 29.193439 # CT
547 110 2 0.060000 28.742683 15.620119 28.398828 # HC
548 110 2 0.060000 29.970148 15.357440 29.656419 # HC
549 110 2 0.060000 28.635582 16.495377 29.941446 # HC
550 110 2 0.060000 29.915189 16.900481 28.777104 # HC
551 111 1 -0.240000 17.796663 32.155763 16.344947 # CT
552 111 2 0.060000 18.623278 32.619003 16.879790 # HC
553 111 2 0.060000 18.109728 31.916109 15.330787 # HC
554 111 2 0.060000 16.954922 32.844473 16.311487 # HC
555 111 2 0.060000 17.498709 31.243487 16.857688 # HC
556 112 1 -0.240000 4.894629 23.382810 32.004298 # CT
557 112 2 0.060000 4.686485 24.080237 31.195463 # HC
558 112 2 0.060000 4.593313 22.380790 31.705759 # HC
559 112 2 0.060000 4.338565 23.679613 32.891243 # HC
560 112 2 0.060000 5.960120 23.390584 32.224745 # HC
561 113 1 -0.240000 29.948213 18.761958 14.457094 # CT
562 113 2 0.060000 30.077370 17.703319 14.672836 # HC
563 113 2 0.060000 28.912108 18.952908 14.185089 # HC
564 113 2 0.060000 30.598074 19.045854 13.631834 # HC