2002
# CELL(abcABC):   69.39074    69.39074    69.39074    90.00000    90.00000    90.00000  Step:         100  Bead:       0 x_centroid{angstrom}  cell{atomic_unit}
       C  1.83895e+01  2.74366e+01  8.56308e+00
       H  1.93512e+01  2.74369e+01  9.09522e+00
       H  1.75958e+01  2.77907e+01  9.23498e+00
       H  1.81556e+01  2.64170e+01  8.22930e+00
       H  1.84516e+01  2.81006e+01  7.69001e+00
       C  2.45476e+01  6.42977e-01  3.23025e+01
       H  2.52011e+01  1.31845e+00  3.17331e+01
       H  2.42441e+01  1.12284e+00  3.32422e+01
       H  2.50676e+01 -2.96064e-01  3.25338e+01
       H  2.36555e+01  4.31449e-01  3.16985e+01
       C  7.42179e+00  1.60564e+01  2.52355e+01
       H  6.72313e+00  1.64175e+01  2.60024e+01
       H  7.74410e+00  1.68991e+01  2.46090e+01
       H  6.92166e+00  1.53047e+01  2.46100e+01
       H  8.29651e+00  1.56036e+01  2.57220e+01
       C  1.32507e+01  3.14274e+01  2.75098e+01
       H  1.30102e+01  3.10085e+01  2.84964e+01
       H  1.32725e+01  3.06210e+01  2.67642e+01
       H  1.42341e+01  3.19153e+01  2.75502e+01
       H  1.24866e+01  3.21650e+01  2.72289e+01
       C  3.60176e+01  1.48220e+01  1.46002e+01
       H  3.69654e+01  1.46105e+01  1.51137e+01
       H  3.60183e+01  1.43369e+01  1.36146e+01
       H  3.59048e+01  1.59072e+01  1.44730e+01
       H  3.51820e+01  1.44362e+01  1.52000e+01
       C  1.92401e+01  2.89622e+01  3.58460e+00
       H  2.02289e+01  2.85698e+01  3.85860e+00
       H  1.88754e+01  2.84411e+01  2.68918e+00
       H  1.93151e+01  3.00380e+01  3.37483e+00
       H  1.85387e+01  2.87975e+01  4.41391e+00
       C  2.56849e+01  3.44288e+00  9.45521e+00
       H  2.61127e+01  3.91344e+00  1.03509e+01
       H  2.64919e+01  3.18525e+00  8.75582e+00
       H  2.49899e+01  4.14199e+00  8.97043e+00
       H  2.51448e+01  2.53063e+00  9.74325e+00
       C  2.42174e+01  1.95655e+01  2.60876e+01
       H  2.40097e+01  2.00448e+01  2.51216e+01
       H  2.52992e+01  1.94106e+01  2.61953e+01
       H  2.37021e+01  1.85965e+01  2.61304e+01
       H  2.38574e+01  2.02084e+01  2.69028e+01
       C  3.22250e+01  4.18146e-01  1.05169e+01
       H  3.22735e+01  6.69379e-01  1.15850e+01
       H  3.12441e+01 -1.96677e-02  1.02864e+01
       H  3.30140e+01 -3.06749e-01  1.02756e+01
       H  3.23691e+01  1.32922e+00  9.92029e+00
       C  2.12610e+01  2.96947e+01  2.57881e+01
       H  2.07041e+01  2.88551e+01  2.53505e+01
       H  2.20488e+01  3.00133e+01  2.50921e+01
       H  2.17166e+01  2.93785e+01  2.67362e+01
       H  2.05754e+01  3.05328e+01  2.59727e+01
       C  1.49338e+01  2.80420e+00  1.53738e+01
       H  1.44359e+01  3.76166e+00  1.51667e+01
       H  1.47526e+01  2.51184e+00  1.64174e+01
       H  1.60142e+01  2.90855e+00  1.52089e+01
       H  1.45408e+01  2.03118e+00  1.46995e+01
       C  3.04440e+01  1.16038e+01  8.81133e-01
       H  2.96925e+01  1.18662e+01  1.23895e-01
       H  3.01265e+01  1.06960e+01  1.41160e+00
       H  3.05477e+01  1.24309e+01  1.59675e+00
       H  3.14096e+01  1.14214e+01  3.90456e-01
       C  5.76830e+00  2.94448e+00  9.14793e+00
       H  6.08215e+00  2.81832e+00  8.10282e+00
       H  4.90051e+00  2.30185e+00  9.34980e+00
       H  5.49573e+00  3.99381e+00  9.32483e+00
       H  6.59527e+00  2.66432e+00  9.81433e+00
       C  2.61534e+01  1.56876e+00  1.33811e+01
       H  2.58974e+01  2.24521e+00  1.25543e+01
       H  2.64111e+01  5.79925e-01  1.29783e+01
       H  2.52932e+01  1.47695e+00  1.40582e+01
       H  2.70121e+01  1.97443e+00  1.39332e+01
       C  1.07142e+01  3.24654e+01  4.92514e+00
       H  1.11344e+01  3.15528e+01  5.37055e+00
       H  1.03351e+01  3.31203e+01  5.72137e+00
       H  9.88796e+00  3.21993e+01  4.25194e+00
       H  1.14943e+01  3.29910e+01  4.35880e+00
       C  3.09406e+01  2.76806e+01  6.29769e+00
       H  3.00911e+01  2.78672e+01  6.96730e+00
       H  3.10514e+01  2.85268e+01  5.60676e+00
       H  3.07607e+01  2.67627e+01  5.72153e+00
       H  3.18580e+01  2.75685e+01  6.89040e+00
       C  1.59114e+00  8.04274e+00  3.01506e+01
       H  9.82118e-01  8.70295e+00  2.95182e+01
       H  1.82234e+00  8.55212e+00  3.10961e+01
       H  2.52643e+00  7.79711e+00  2.96296e+01
       H  1.03449e+00  7.11864e+00  3.03582e+01
       C  2.88722e+01  1.06075e+01  2.50635e+01
       H  2.90428e+01  9.91776e+00  2.59014e+01
       H  2.82869e+01  1.01012e+01  2.42840e+01
       H  2.98384e+01  1.09235e+01  2.46471e+01
       H  2.83213e+01  1.14884e+01  2.54200e+01
       C  3.30865e+01  2.03790e+01  3.08953e+01
       H  3.37936e+01  2.06461e+01  3.00981e+01
       H  3.28938e+01  2.12595e+01  3.15234e+01
       H  3.35153e+01  1.95767e+01  3.15111e+01
       H  3.21441e+01  2.00341e+01  3.04486e+01
       C  2.19610e+00  2.28395e+01  1.26176e+01
       H  1.11378e+00  2.26664e+01  1.25433e+01
       H  2.58283e+00  2.23570e+01  1.35255e+01
       H  2.39351e+00  2.39193e+01  1.26630e+01
       H  2.69565e+00  2.24141e+01  1.17369e+01
       C  1.13442e+01  2.32761e+01  9.16282e+00
       H  1.21589e+01  2.35090e+01  9.86109e+00
       H  1.12992e+01  2.21909e+01  8.99822e+00
       H  1.15282e+01  2.37847e+01  8.20652e+00
       H  1.03895e+01  2.36216e+01  9.58252e+00
       C  4.52104e+00  1.20981e+01  3.60328e+01
       H  4.41490e+00  1.10158e+01  3.61882e+01
       H  4.56998e+00  1.23105e+01  3.49562e+01
       H  5.44265e+00  1.24487e+01  3.65170e+01
       H  3.65755e+00  1.26174e+01  3.64703e+01
       C  1.03092e+01  1.10344e+01  2.07305e+01
       H  1.05893e+01  1.17558e+01  1.99509e+01
       H  1.08164e+01  1.00782e+01  2.05422e+01
       H  9.22188e+00  1.08787e+01  2.07132e+01
       H  1.06106e+01  1.14219e+01  2.17133e+01
       C  1.13210e+01  2.92376e+01  3.57558e+01
       H  1.20112e+01  2.89630e+01  3.49467e+01
       H  1.16895e+01  3.01410e+01  3.62605e+01
       H  1.12589e+01  2.84132e+01  3.64790e+01
       H  1.03246e+01  2.94328e+01  3.53363e+01
       C  2.88724e+01  1.49107e+01  2.00532e+01
       H  2.83506e+01  1.45175e+01  2.09357e+01
       H  2.97996e+01  1.54083e+01  2.03687e+01
       H  2.82276e+01  1.56369e+01  1.95392e+01
       H  2.91144e+01  1.40848e+01  1.93708e+01
       C  2.99094e+01  2.46872e+01  8.56739e+00
       H  3.03598e+01  2.56065e+01  8.17101e+00
       H  2.90463e+01  2.49444e+01  9.19574e+00
       H  3.06530e+01  2.41468e+01  9.16854e+00
       H  2.95817e+01  2.40516e+01  7.73347e+00
       C  3.10553e+01  3.55091e+01  1.48418e+01
       H  3.09417e+01  3.55711e+01  1.59328e+01
       H  3.17233e+01  3.46747e+01  1.45879e+01
       H  3.14829e+01  3.64473e+01  1.44629e+01
       H  3.00718e+01  3.53438e+01  1.43815e+01
       C  1.93927e+01  6.87145e+00  6.60271e+00
       H  2.00387e+01  6.23358e+00  7.22124e+00
       H  1.89199e+01  6.26249e+00  5.82033e+00
       H  1.99972e+01  7.66159e+00  6.13678e+00
       H  1.86165e+01  7.32657e+00  7.23285e+00
       C  5.08165e+00  1.01943e+01  8.64877e+00
       H  4.61399e+00  9.30355e+00  8.20751e+00
       H  5.55894e+00  9.92400e+00  9.60053e+00
       H  4.31428e+00  1.09597e+01  8.82835e+00
       H  5.83913e+00  1.05901e+01  7.95856e+00
       C  3.23876e+01  5.57789e+00  4.75322e+00
       H  3.30786e+01  5.70789e+00  5.59683e+00
       H  3.17125e+01  4.73711e+00  4.96552e+00
       H  3.29615e+01  5.37196e+00  3.83917e+00
       H  3.17973e+01  6.49380e+00  4.61697e+00
       C  1.96613e+01  2.44722e+01  6.11246e+00
       H  2.00153e+01  2.34928e+01  6.46184e+00
       H  1.85632e+01  2.44719e+01  6.07620e+00
       H  2.00632e+01  2.46679e+01  5.10904e+00
       H  2.00060e+01  2.52536e+01  6.80347e+00
       C  1.70618e+01  3.26368e+01  2.01869e+01
       H  1.79389e+01  3.31723e+01  1.97974e+01
       H  1.63072e+01  3.33617e+01  2.05198e+01
       H  1.73638e+01  3.20051e+01  2.10341e+01
       H  1.66377e+01  3.20043e+01  1.93952e+01
       C  2.58879e+01  4.24548e+00  2.35359e+01
       H  2.49565e+01  4.05372e+00  2.29856e+01
       H  2.61214e+01  3.38085e+00  2.41716e+01
       H  2.57663e+01  5.13936e+00  2.41628e+01
       H  2.67095e+01  4.40420e+00  2.28242e+01
       C  5.69801e+00  1.77635e+01  7.14990e+00
       H  5.51117e+00  1.67387e+01  6.80114e+00
       H  4.87533e+00  1.80838e+01  7.80352e+00
       H  5.76317e+00  1.84380e+01  6.28540e+00
       H  6.64269e+00  1.77927e+01  7.70995e+00
       C  6.64342e+00  7.59947e+00  2.50399e+01
       H  6.81907e+00  8.62329e+00  2.46828e+01
       H  5.76608e+00  7.17948e+00  2.45293e+01
       H  6.46385e+00  7.61456e+00  2.61236e+01
       H  7.52511e+00  6.98131e+00  2.48226e+01
       C  1.41327e+01  1.22258e+01  2.39629e+01
       H  1.34012e+01  1.15807e+01  2.44686e+01
       H  1.41768e+01  1.31996e+01  2.44696e+01
       H  1.38295e+01  1.23711e+01  2.29172e+01
       H  1.51231e+01  1.17516e+01  2.39935e+01
       C  3.16530e+01  7.50978e+00  1.12556e+01
       H  3.12244e+01  6.58853e+00  1.16734e+01
       H  3.21018e+01  8.10371e+00  1.20628e+01
       H  3.08636e+01  8.09556e+00  1.07647e+01
       H  3.24266e+01  7.25219e+00  1.05201e+01
       C  9.57549e+00  2.88690e+01  8.57599e+00
       H  9.57824e+00  2.90942e+01  7.50097e+00
       H  1.04987e+01  2.92505e+01  9.03343e+00
       H  9.51376e+00  2.77822e+01  8.72110e+00
       H  8.70979e+00  2.93511e+01  9.04934e+00
       C  3.54996e+01  2.23927e+01  3.41248e+01
       H  3.55055e+01  2.31167e+01  3.49509e+01
       H  3.63711e+01  2.25668e+01  3.34792e+01
       H  3.45790e+01  2.25141e+01  3.35379e+01
       H  3.55433e+01  2.13730e+01  3.45311e+01
       C  2.74528e+01  2.99154e+01  1.59826e+01
       H  2.70807e+01  3.02657e+01  1.69553e+01
       H  2.71055e+01  3.05961e+01  1.51936e+01
       H  2.70716e+01  2.89039e+01  1.57881e+01
       H  2.85510e+01  2.98969e+01  1.59925e+01
       C  2.23476e+01  2.25797e+01  2.23314e+01
       H  2.30521e+01  2.34078e+01  2.21775e+01
       H  2.13621e+01  2.28533e+01  2.19293e+01
       H  2.22576e+01  2.23709e+01  2.34059e+01
       H  2.27172e+01  2.16828e+01  2.18157e+01
       C  1.31346e+01  1.79984e+01  2.45699e+01
       H  1.36916e+01  1.89229e+01  2.43644e+01
       H  1.21026e+01  1.82483e+01  2.48523e+01
       H  1.36187e+01  1.74491e+01  2.53882e+01
       H  1.31224e+01  1.73760e+01  2.36645e+01
       C  6.84066e+00  3.36751e+01  3.25242e+00
       H  6.02718e+00  3.30699e+01  3.67590e+00
       H  7.12159e+00  3.32785e+01  2.26731e+00
       H  7.70990e+00  3.36393e+01  3.92258e+00
       H  6.50690e+00  3.47162e+01  3.14633e+00
       C  6.40730e+00  2.52902e+01  1.00241e+01
       H  5.99222e+00  2.54576e+01  1.10279e+01
       H  6.70525e+00  2.62519e+01  9.58383e+00
       H  5.64808e+00  2.48150e+01  9.38862e+00
       H  7.28418e+00  2.46318e+01  1.00975e+01
       C  2.44628e+01  9.00232e+00  1.59976e+01
       H  2.35639e+01  9.28742e+00  1.54338e+01
       H  2.51006e+01  9.88521e+00  1.61409e+01
       H  2.50177e+01  8.23840e+00  1.54366e+01
       H  2.41715e+01  8.59950e+00  1.69772e+01
       C  1.71924e+01  2.85860e+01  2.83980e+01
       H  1.64065e+01  2.87983e+01  2.76603e+01
       H  1.67849e+01  2.87088e+01  2.94106e+01
       H  1.80304e+01  2.92817e+01  2.82559e+01
       H  1.75456e+01  2.75540e+01  2.82670e+01
       C  3.60199e+01  1.12259e+01  1.63194e+01
       H  3.66968e+01  1.18943e+01  1.68683e+01
       H  3.66063e+01  1.04568e+01  1.57989e+01
       H  3.54465e+01  1.18090e+01  1.55858e+01
       H  3.53293e+01  1.07460e+01  1.70265e+01
       C  3.25768e+01  1.76207e+01  6.55461e+00
       H  3.20982e+01  1.82780e+01  7.29293e+00
       H  3.30032e+01  1.82299e+01  5.74608e+00
       H  3.18286e+01  1.69316e+01  6.13959e+00
       H  3.33758e+01  1.70451e+01  7.04149e+00
       C  1.84807e+00  5.73685e+00  3.32139e+01
       H  1.10917e+00  4.97567e+00  3.29292e+01
       H  1.39395e+00  6.73436e+00  3.31383e+01
       H  2.71414e+00  5.67699e+00  3.25407e+01
       H  2.17588e+00  5.56114e+00  3.42475e+01
       C  4.88155e+00  1.47031e+01  3.09440e+01
       H  4.38946e+00  1.56656e+01  3.11393e+01
       H  5.95045e+00  1.47838e+01  3.11835e+01
       H  4.76312e+00  1.44398e+01  2.98841e+01
       H  4.42361e+00  1.39237e+01  3.15682e+01
       C  1.93423e+01  1.47074e+01  1.74246e+01
       H  1.92533e+01  1.57644e+01  1.71397e+01
       H  2.03859e+01  1.43843e+01  1.73071e+01
       H  1.86929e+01  1.40980e+01  1.67814e+01
       H  1.90369e+01  1.45848e+01  1.84725e+01
       C  1.53302e+01  2.56138e+01  9.56897e+00
       H  1.42752e+01  2.53189e+01  9.49153e+00
       H  1.57171e+01  2.58597e+01  8.57060e+00
       H  1.59098e+01  2.47824e+01  9.99149e+00
       H  1.54161e+01  2.64928e+01  1.02223e+01
       C  1.66864e+01  7.78891e+00  1.05732e+01
       H  1.70565e+01  7.23483e+00  9.69971e+00
       H  1.60833e+01  7.12184e+00  1.12043e+01
       H  1.60676e+01  8.63109e+00  1.02347e+01
       H  1.75372e+01  8.17036e+00  1.11540e+01
       C  2.66197e+01  1.03320e+01  1.80789e+00
       H  2.63414e+01  1.12052e+01  2.41359e+00
       H  2.57609e+01  9.65165e+00  1.73144e+00
       H  2.74585e+01  9.80835e+00  2.28579e+00
       H  2.69182e+01  1.06593e+01  8.02400e-01
       C  6.29693e+00  7.66415e+00  2.11831e+01
       H  7.09722e+00  8.07102e+00  2.05502e+01
       H  6.17453e+00  8.29893e+00  2.20709e+01
       H  6.55884e+00  6.64397e+00  2.14947e+01
       H  5.35654e+00  7.64218e+00  2.06158e+01
       C  2.34120e+01  2.20746e+01  3.47046e+01
       H  2.36901e+01  2.30348e+01  3.51601e+01
       H  2.39080e+01  2.12564e+01  3.52444e+01
       H  2.37276e+01  2.20633e+01  3.36524e+01
       H  2.23228e+01  2.19438e+01  3.47620e+01
       C  9.98798e+00  6.63707e+00  2.04081e+01
       H  9.45774e+00  7.35795e+00  1.97714e+01
       H  1.01870e+01  5.72116e+00  1.98356e+01
       H  9.36827e+00  6.39474e+00  2.12824e+01
       H  1.09392e+01  7.07412e+00  2.07412e+01
       C  1.14462e+01  1.37413e+01  1.32513e+01
       H  1.13820e+01  1.27222e+01  1.36564e+01
       H  1.12385e+01  1.44658e+01  1.40504e+01
       H  1.07096e+01  1.38633e+01  1.24454e+01
       H  1.24551e+01  1.39146e+01  1.28530e+01
       C  2.19765e+01  4.84637e+00  4.72243e+00
       H  2.23323e+01  5.07314e+00  5.73680e+00
       H  2.27956e+01  4.99362e+00  4.00540e+00
       H  2.11443e+01  5.51591e+00  4.46587e+00
       H  2.16337e+01  3.80365e+00  4.68115e+00
       C  3.55383e+01  7.63890e+00  3.98817e+00
       H  3.63319e+01  8.30625e+00  4.35129e+00
       H  3.54984e+01  7.67694e+00  2.89093e+00
       H  3.45737e+01  7.96060e+00  4.40381e+00
       H  3.57476e+01  6.60933e+00  4.30855e+00
       C  1.31287e+01  2.86403e+01  1.34482e+01
       H  1.21739e+01  2.81195e+01  1.33078e+01
       H  1.31232e+01  2.95845e+01  1.28851e+01
       H  1.39536e+01  2.80077e+01  1.30940e+01
       H  1.32770e+01  2.88517e+01  1.45168e+01
       C  3.19910e+01  1.35862e+01  2.16798e+01
       H  3.29911e+01  1.38929e+01  2.13426e+01
       H  3.20778e+01  1.29094e+01  2.25412e+01
       H  3.14657e+01  1.30776e+01  2.08592e+01
       H  3.14216e+01  1.44767e+01  2.19736e+01
       C  2.59670e+01  1.04756e+01  1.23216e+01
       H  2.61856e+01  9.61784e+00  1.16710e+01
       H  2.67163e+01  1.12614e+01  1.21538e+01
       H  2.60006e+01  1.01557e+01  1.33719e+01
       H  2.49673e+01  1.08669e+01  1.20889e+01
       C  2.46851e+01  2.35261e+01  2.57242e+01
       H  2.45330e+01  2.25005e+01  2.60834e+01
       H  2.44303e+01  2.42325e+01  2.65258e+01
       H  2.40381e+01  2.37055e+01  2.48549e+01
       H  2.57360e+01  2.36623e+01  2.54340e+01
       C  2.01987e+01  3.59002e+01  2.97986e+01
       H  1.95619e+01  3.65725e+01  2.92073e+01
       H  2.09570e+01  3.64895e+01  3.03318e+01
       H  2.06953e+01  3.51848e+01  2.91291e+01
       H  1.95814e+01  3.53557e+01  3.05262e+01
       C  3.26320e+00  1.14717e+01  1.47972e+01
       H  3.18305e+00  1.03764e+01  1.47679e+01
       H  3.11077e+00  1.18221e+01  1.58270e+01
       H  2.49797e+00  1.19125e+01  1.41437e+01
       H  4.26032e+00  1.17756e+01  1.44501e+01
       C  1.42958e+01  2.88263e+01  3.29698e+01
       H  1.47044e+01  2.87314e+01  3.39851e+01
       H  1.51148e+01  2.87817e+01  3.22391e+01
       H  1.37717e+01  2.97871e+01  3.28744e+01
       H  1.35915e+01  2.80045e+01  3.27816e+01
       C  3.23002e+01  2.89432e+01  3.06214e+01
       H  3.28948e+01  2.81248e+01  3.01930e+01
       H  3.29708e+01  2.97415e+01  3.09673e+01
       H  3.17133e+01  2.85645e+01  3.14691e+01
       H  3.16200e+01  2.93421e+01  2.98566e+01
       C  3.01983e+01  2.59099e+01  1.47410e+01
       H  3.04243e+01  2.52352e+01  1.39036e+01
       H  3.10642e+01  2.65582e+01  1.49331e+01
       H  2.99766e+01  2.53184e+01  1.56393e+01
       H  2.93279e+01  2.65287e+01  1.44857e+01
       C  1.90288e+01  2.12659e+01  3.45758e+01
       H  1.79535e+01  2.14905e+01  3.45647e+01
       H  1.92125e+01  2.03858e+01  3.52069e+01
       H  1.95783e+01  2.21271e+01  3.49799e+01
       H  1.93706e+01  2.10609e+01  3.35522e+01
       C  1.89027e+00  1.40584e+01  2.14165e+01
       H  1.82487e+00  1.33149e+01  2.22227e+01
       H  2.64077e+00  1.37365e+01  2.06817e+01
       H  2.18302e+00  1.50302e+01  2.18369e+01
       H  9.12495e-01  1.41516e+01  2.09247e+01
       C  2.86648e+01  2.74358e+01  2.56599e+01
       H  2.83998e+01  2.79808e+01  2.65762e+01
       H  2.88719e+01  2.81523e+01  2.48536e+01
       H  2.78300e+01  2.67849e+01  2.53668e+01
       H  2.95588e+01  2.68244e+01  2.58434e+01
       C  5.35917e+00  1.31955e+01  2.70476e+01
       H  5.29910e+00  1.42574e+01  2.67726e+01
       H  5.64987e+00  1.26042e+01  2.61689e+01
       H  4.37839e+00  1.28566e+01  2.74076e+01
       H  6.10595e+00  1.30644e+01  2.78423e+01
       C  7.87082e+00  3.48091e+00  1.42009e+01
       H  8.86122e+00  3.01004e+00  1.42662e+01
       H  7.12033e+00  2.82065e+00  1.46564e+01
       H  7.61681e+00  3.65126e+00  1.31459e+01
       H  7.88589e+00  4.44103e+00  1.47345e+01
       C  2.83156e+01  1.05194e+01  2.89301e+01
       H  2.80009e+01  1.09603e+01  2.98857e+01
       H  2.92677e+01  1.09677e+01  2.86145e+01
       H  2.75484e+01  1.07144e+01  2.81685e+01
       H  2.84433e+01  9.43514e+00  2.90515e+01
       C  2.06205e+01  2.17141e+01  2.59128e+01
       H  2.01064e+01  2.07734e+01  2.61516e+01
       H  2.05594e+01  2.23946e+01  2.67733e+01
       H  2.01421e+01  2.21797e+01  2.50403e+01
       H  2.16753e+01  2.15047e+01  2.56907e+01
       C  8.13917e+00  2.04568e+01  1.49618e+01
       H  7.11369e+00  2.05624e+01  1.45828e+01
       H  8.23813e+00  2.10040e+01  1.59089e+01
       H  8.84553e+00  2.08648e+01  1.42264e+01
       H  8.35872e+00  1.93943e+01  1.51308e+01
       C  1.07540e+01  1.51976e+01  4.68304e+00
       H  1.11663e+01  1.57545e+01  3.83049e+00
       H  9.66128e+00  1.51380e+01  4.58722e+00
       H  1.10118e+01  1.57137e+01  5.61788e+00
       H  1.11758e+01  1.41834e+01  4.69636e+00
       C  6.46158e+00  8.95756e+00  1.40533e+01
       H  7.47863e+00  8.95953e+00  1.44684e+01
       H  6.47648e+00  9.39187e+00  1.30445e+01
       H  5.80197e+00  9.55310e+00  1.46990e+01
       H  6.08944e+00  7.92522e+00  1.40023e+01
       C  2.45185e+01  2.14426e+01  8.23832e+00
       H  2.47916e+01  2.21730e+01  7.46461e+00
       H  2.52972e+01  2.06704e+01  8.30423e+00
       H  2.35596e+01  2.09746e+01  7.97740e+00
       H  2.44248e+01  2.19524e+01  9.20678e+00
       C  3.44059e+01  6.46011e+00  1.67892e+01
       H  3.41698e+01  5.38740e+00  1.67663e+01
       H  3.47402e+01  6.78096e+00  1.57936e+01
       H  3.52073e+01  6.64291e+00  1.75180e+01
       H  3.35096e+01  7.02801e+00  1.70742e+01
       C  1.09030e+01  3.09725e+01  1.65730e+01
       H  1.04397e+01  3.00866e+01  1.70284e+01
       H  1.01875e+01  3.14486e+01  1.58886e+01
       H  1.17991e+01  3.06712e+01  1.60137e+01
       H  1.11840e+01  3.16844e+01  1.73608e+01
       C  1.21881e+01  2.47290e+01  1.40425e+01
       H  1.29632e+01  2.52131e+01  1.34331e+01
       H  1.26626e+01  2.40953e+01  1.48046e+01
       H  1.15540e+01  2.41070e+01  1.33959e+01
       H  1.15748e+01  2.54976e+01  1.45320e+01
       C  4.22139e+00  1.05755e+01  2.95155e+01
       H  3.64720e+00  1.07705e+01  2.85994e+01
       H  4.69866e+00  9.58879e+00  2.94445e+01
       H  3.54584e+00  1.05945e+01  3.03813e+01
       H  4.99280e+00  1.13485e+01  2.96359e+01
       C  2.63033e+01  6.91311e+00  3.31130e+01
       H  2.63992e+01  6.39796e+00  3.21476e+01
       H  2.70606e+01  6.52704e+00  3.38089e+01
       H  2.53008e+01  6.73572e+00  3.35258e+01
       H  2.64540e+01  7.99188e+00  3.29701e+01
       C  1.92170e+01  2.35074e+00  2.16492e-01
       H  2.00665e+01  1.73180e+00  5.35607e-01
       H  1.87566e+01  2.82311e+00  1.09495e+00
       H  1.84738e+01  1.71957e+00 -2.89559e-01
       H  1.95702e+01  3.12701e+00 -4.75903e-01
       C  1.87872e+01  1.69226e+01  2.64781e+01
       H  1.91626e+01  1.68390e+01  2.75068e+01
       H  1.79429e+01  1.62338e+01  2.63398e+01
       H  1.95901e+01  1.66631e+01  2.57747e+01
       H  1.84528e+01  1.79522e+01  2.62910e+01
       C  1.56890e+01  2.07490e+01  2.00974e+01
       H  1.49031e+01  2.02102e+01  1.95511e+01
       H  1.58530e+01  2.02690e+01  2.10719e+01
       H  1.53806e+01  2.17922e+01  2.02482e+01
       H  1.66213e+01  2.07249e+01  1.95167e+01
       C  2.49660e+01  1.52806e+01  1.59904e+00
       H  2.45631e+01  1.43442e+01  1.18987e+00
       H  2.45163e+01  1.54744e+01  2.58238e+00
       H  2.47278e+01  1.61101e+01  9.19532e-01
       H  2.60561e+01  1.51963e+01  1.70537e+00
       C  2.76244e+01  2.13246e+01  2.62336e+01
       H  2.67919e+01  2.14950e+01  2.69297e+01
       H  2.82932e+01  2.21961e+01  2.62375e+01
       H  2.72286e+01  2.11716e+01  2.52202e+01
       H  2.81853e+01  2.04338e+01  2.65468e+01
       C  1.36987e+01  3.26570e+01  7.74438e+00
       H  1.30245e+01  3.33384e+01  7.20774e+00
       H  1.35869e+01  3.28066e+01  8.82687e+00
       H  1.47374e+01  3.28624e+01  7.45196e+00
       H  1.34454e+01  3.16187e+01  7.49034e+00
       C  2.84628e+01  2.24060e+01  2.98170e+01
       H  2.87706e+01  2.31800e+01  2.91010e+01
       H  2.93507e+01  2.18764e+01  3.01879e+01
       H  2.77914e+01  2.16925e+01  2.93205e+01
       H  2.79378e+01  2.28761e+01  3.06597e+01
       C  8.85182e+00  3.54640e+00  3.59498e+01
       H  9.91230e+00  3.26078e+00  3.59308e+01
       H  8.71812e+00  4.41279e+00  3.66123e+01
       H  8.25206e+00  2.70512e+00  3.63218e+01
       H  8.52459e+00  3.80861e+00  3.49342e+01
       C  3.20653e+01  2.61375e+01  1.14966e+01
       H  3.10294e+01  2.64694e+01  1.13464e+01
       H  3.27325e+01  2.67131e+01  1.08409e+01
       H  3.21464e+01  2.50685e+01  1.12572e+01
       H  3.23529e+01  2.63012e+01  1.25439e+01
       C  3.24700e+01  3.23671e+01  1.16857e+00
       H  3.25686e+01  3.29127e+01  2.11697e+00
       H  3.17063e+01  3.15847e+01  1.27395e+00
       H  3.34329e+01  3.19064e+01  9.09192e-01
       H  3.21725e+01  3.30648e+01  3.73834e-01
       C  2.94882e+01  2.50779e+01  3.21399e+01
       H  2.87256e+01  2.53251e+01  3.13890e+01
       H  2.90000e+01  2.46844e+01  3.30417e+01
       H  3.00559e+01  2.59831e+01  3.23942e+01
       H  3.01710e+01  2.43202e+01  3.17318e+01
       C  2.44254e+01  2.73452e+01  2.43056e+01
       H  2.41290e+01  2.71943e+01  2.32587e+01
       H  2.54505e+01  2.77371e+01  2.43434e+01
       H  2.43827e+01  2.63872e+01  2.48405e+01
       H  2.37395e+01  2.80587e+01  2.47817e+01
       C  4.68404e+00  5.44569e+00  1.23444e+01
       H  4.20436e+00  5.69674e+00  1.33002e+01
       H  4.05301e+00  4.73624e+00  1.17916e+01
       H  5.66326e+00  4.98805e+00  1.25373e+01
       H  4.81942e+00  6.36086e+00  1.17519e+01
       C  1.15393e+01  1.43279e+01  1.75062e+01
       H  1.07475e+01  1.36363e+01  1.78251e+01
       H  1.10870e+01  1.52160e+01  1.70442e+01
       H  1.21888e+01  1.38279e+01  1.67747e+01
       H  1.21354e+01  1.46305e+01  1.83774e+01
       C  3.33416e+01  1.75879e+00  4.02380e-01
       H  3.23331e+01  1.38564e+00  6.26797e-01
       H  3.40186e+01  1.50159e+00  1.22845e+00
       H  3.33089e+01  2.84995e+00  2.79234e-01
       H  3.37051e+01  1.29563e+00 -5.25020e-01
       C  2.97077e+01  1.33092e+01  5.99473e+00
       H  3.01733e+01  1.38576e+01  6.82496e+00
       H  3.03883e+01  1.25185e+01  5.65096e+00
       H  2.95035e+01  1.40019e+01  5.16693e+00
       H  2.87657e+01  1.28586e+01  6.33610e+00
       C  2.78217e+01  2.57557e+01  1.18121e+01
       H  2.73523e+01  2.57756e+01  1.28050e+01
       H  2.88837e+01  2.54957e+01  1.19152e+01
       H  2.77314e+01  2.67452e+01  1.13437e+01
       H  2.73211e+01  2.50058e+01  1.11848e+01
       C  1.42756e+01  3.50522e+01  2.60630e+01
       H  1.36419e+01  3.56886e+01  2.66954e+01
       H  1.53019e+01  3.50528e+01  2.64546e+01
       H  1.42751e+01  3.54403e+01  2.50354e+01
       H  1.38835e+01  3.40264e+01  2.60660e+01
       C  1.73491e+01  1.81354e+01  7.17488e+00
       H  1.76583e+01  1.91707e+01  6.97658e+00
       H  1.62533e+01  1.80671e+01  7.13902e+00
       H  1.77024e+01  1.78320e+01  8.16982e+00
       H  1.77826e+01  1.74718e+01  6.41429e+00
       C  8.19783e+00  1.32253e+01  3.34289e+01
       H  8.88666e+00  1.26822e+01  3.27678e+01
       H  8.66200e+00  1.41694e+01  3.37442e+01
       H  7.97921e+00  1.26103e+01  3.43131e+01
       H  7.26472e+00  1.34363e+01  3.28897e+01
       C  2.41187e+00  3.35859e+01  2.99447e+01
       H  3.44058e+00  3.38790e+01  2.96945e+01
       H  1.70748e+00  3.42884e+01  2.94788e+01
       H  2.28046e+00  3.36047e+01  3.10352e+01
       H  2.21892e+00  3.25714e+01  2.95700e+01
       C  1.12559e+01  3.30237e+01  2.36669e+01
       H  1.18901e+01  3.25900e+01  2.28817e+01
       H  1.18537e+01  3.37083e+01  2.42839e+01
       H  1.08527e+01  3.22198e+01  2.42977e+01
       H  1.04271e+01  3.35770e+01  2.32044e+01
       C  1.77462e+01  1.78239e+01  2.01429e+01
       H  1.81917e+01  1.70989e+01  2.08374e+01
       H  1.78993e+01  1.74835e+01  1.91098e+01
       H  1.82262e+01  1.88026e+01  2.02818e+01
       H  1.66709e+01  1.79099e+01  2.03499e+01
       C  3.05143e+01  1.52998e+01  2.58347e+01
       H  2.96503e+01  1.51484e+01  2.51737e+01
       H  3.04779e+01  1.45733e+01  2.66579e+01
       H  3.04862e+01  1.63185e+01  2.62447e+01
       H  3.14419e+01  1.51603e+01  2.52629e+01
       C  2.86005e+01  1.61097e+01  2.89795e+01
       H  2.80214e+01  1.62089e+01  2.80513e+01
       H  2.90617e+01  1.51135e+01  2.90186e+01
       H  2.79335e+01  1.62375e+01  2.98429e+01
       H  2.93859e+01  1.68774e+01  2.90049e+01
       C  1.78848e+01  3.29922e+01  1.65693e+01
       H  1.87605e+01  3.35128e+01  1.69796e+01
       H  1.78834e+01  3.30895e+01  1.54752e+01
       H  1.69672e+01  3.34387e+01  1.69759e+01
       H  1.79279e+01  3.19288e+01  1.68428e+01
       C  4.89118e+00  2.33127e+01  3.19224e+01
       H  4.64022e+00  2.39981e+01  3.11014e+01
       H  4.60934e+00  2.22882e+01  3.16435e+01
       H  4.34376e+00  2.36095e+01  3.28274e+01
       H  5.97137e+00  2.33551e+01  3.21176e+01
       C  2.96195e+01  1.86173e+01  1.38615e+01
       H  2.90480e+01  1.76855e+01  1.37524e+01
       H  2.89607e+01  1.94762e+01  1.36739e+01
       H  3.04453e+01  1.86264e+01  1.31373e+01
       H  3.00251e+01  1.86819e+01  1.48804e+01
       C  2.34452e+01  1.52933e+01  8.76503e+00
       H  2.36600e+01  1.54569e+01  9.82986e+00
       H  2.41217e+01  1.59078e+01  8.15564e+00
       H  2.24046e+01  1.55747e+01  8.55381e+00
       H  2.35943e+01  1.42331e+01  8.52000e+00
       C  2.59277e+01  9.82765e+00  2.12020e+01
       H  2.67769e+01  1.03785e+01  2.07753e+01
       H  2.58769e+01  1.00131e+01  2.22835e+01
       H  2.60601e+01  8.75231e+00  2.10206e+01
       H  2.49962e+01  1.01665e+01  2.07282e+01
       C  2.55180e+01  1.34994e+01  4.91561e+00
       H  2.50148e+01  1.26014e+01  5.29902e+00
       H  2.63947e+01  1.37229e+01  5.53841e+00
       H  2.48227e+01  1.43494e+01  4.94470e+00
       H  2.58397e+01  1.33251e+01  3.87989e+00
       C  3.03569e+01  1.60717e+01  1.66368e+01
       H  3.01622e+01  1.50046e+01  1.68091e+01
       H  2.94003e+01  1.66033e+01  1.65456e+01
       H  3.09369e+01  1.61934e+01  1.57119e+01
       H  3.09234e+01  1.64835e+01  1.74833e+01
       C  2.73147e+01  1.95411e+00  1.90888e+00
       H  2.65893e+01  1.95073e+00  1.08398e+00
       H  2.68094e+01  1.66860e+00  2.84162e+00
       H  2.77415e+01  2.96047e+00  2.01663e+00
       H  2.81181e+01  1.23669e+00  1.69316e+00
       C  3.59462e+01  9.15296e+00  2.53615e+01
       H  3.67736e+01  8.48376e+00  2.50879e+01
       H  3.61413e+01  9.58347e+00  2.63523e+01
       H  3.50023e+01  8.58961e+00  2.53735e+01
       H  3.58885e+01  9.97909e+00  2.46417e+01
       C  6.93402e+00  1.36721e+01  1.30234e+01
       H  6.98955e+00  1.30332e+01  1.39150e+01
       H  7.35203e+00  1.46614e+01  1.32540e+01
       H  5.88431e+00  1.37800e+01  1.27181e+01
       H  7.50867e+00  1.32142e+01  1.22070e+01
       C  2.45097e+01  9.44329e+00  2.84222e+01
       H  2.51455e+01  9.31692e+00  2.93090e+01
       H  2.48256e+01  1.03365e+01  2.78668e+01
       H  2.34638e+01  9.55996e+00  2.87364e+01
       H  2.46012e+01  8.55898e+00  2.77774e+01
       C  2.06438e+00  1.82333e+01  1.47531e+00
       H  1.70009e+00  1.92649e+01  1.37695e+00
       H  1.79660e+00  1.78432e+01  2.46660e+00
       H  3.15665e+00  1.82178e+01  1.35875e+00
       H  1.60443e+00  1.76067e+01  6.99358e-01
       C  1.48496e+01  1.35747e+01  1.64270e+00
       H  1.46107e+01  1.26825e+01  1.04799e+00
       H  1.49305e+01  1.32971e+01  2.70240e+00
       H  1.40533e+01  1.43213e+01  1.51912e+00
       H  1.58044e+01  1.39974e+01  1.30135e+00
       C  2.36328e+01  8.56836e+00  3.63177e+01
       H  2.28706e+01  8.20953e+00  3.56128e+01
       H  2.44660e+01  7.85302e+00  3.63529e+01
       H  2.31891e+01  8.66455e+00  3.73180e+01
       H  2.40037e+01  9.54806e+00  3.59869e+01
       C  6.21063e+00  2.07756e+01  4.07072e+00