LAMMPS data file. CGCMM style. atom_style full generated by VMD/TopoTools v1.5 on Wed Nov 30 12:14:08 GMT 2016
 8000 atoms
 6400 bonds
 9600 angles
 0 dihedrals
 0 impropers
 2 atom types
 1 bond types
 1 angle types
 0 dihedral types
 0 improper types
 0.0 46.26430095213974  xlo xhi
 0.0 46.26430095213974  ylo yhi
 0.0 46.26430095213974  zlo zhi

# Pair Coeffs
#
# 1  CT
# 2  HC

# Bond Coeffs
#
# 1  CT-HC

# Angle Coeffs
#
# 1  HC-CT-HC

 Masses

 1 12.011000 # CT
 2 1.008000 # HC

 Atoms

1 1 1 -0.240000 9.753044 43.610820 35.566862 # CT
2 1 2 0.060000 10.615013 44.009480 35.035805 # HC
3 1 2 0.060000 8.912542 43.524817 34.881208 # HC
4 1 2 0.060000 9.488386 44.280155 36.382900 # HC
5 1 2 0.060000 9.996202 42.628854 35.967542 # HC
6 2 1 -0.240000 4.636038 24.358096 45.102239 # CT
7 2 2 0.060000 3.669162 23.985484 44.770197 # HC
8 2 2 0.060000 5.141362 23.588820 45.682605 # HC
9 2 2 0.060000 4.491400 25.242109 45.719953 # HC
10 2 2 0.060000 5.242235 24.615976 44.236241 # HC
11 3 1 -0.240000 35.213114 0.782587 2.050669 # CT
12 3 2 0.060000 35.876354 1.400948 1.449268 # HC
13 3 2 0.060000 34.502842 0.274726 1.401398 # HC
14 3 2 0.060000 34.673971 1.410056 2.757477 # HC
15 3 2 0.060000 35.799249 0.044627 2.594534 # HC
16 4 1 -0.240000 4.994001 41.383402 6.310707 # CT
17 4 2 0.060000 5.751061 41.023535 5.616951 # HC
18 4 2 0.060000 5.437382 41.513754 7.295788 # HC
19 4 2 0.060000 4.183610 40.659766 6.370601 # HC
20 4 2 0.060000 4.603941 42.336528 5.959521 # HC
21 5 1 -0.240000 34.798212 11.581491 20.996417 # CT
22 5 2 0.060000 34.027769 11.707660 21.754336 # HC
23 5 2 0.060000 34.816237 12.455503 20.348544 # HC
24 5 2 0.060000 34.582117 10.695002 20.403618 # HC
25 5 2 0.060000 35.766710 11.467795 21.479131 # HC
26 6 1 -0.240000 36.799595 14.506949 12.922505 # CT
27 6 2 0.060000 36.331736 13.906800 12.144771 # HC
28 6 2 0.060000 37.537697 13.905928 13.449707 # HC
29 6 2 0.060000 36.040614 14.846948 13.624158 # HC
30 6 2 0.060000 37.288328 15.368107 12.471423 # HC
31 7 1 -0.240000 8.832385 30.950577 15.012668 # CT
32 7 2 0.060000 9.558778 30.172581 15.238538 # HC
33 7 2 0.060000 8.488623 30.838918 13.986353 # HC
34 7 2 0.060000 9.296657 31.926971 15.135453 # HC
35 7 2 0.060000 7.985493 30.863866 15.690298 # HC
36 8 1 -0.240000 2.821793 18.812673 6.588152 # CT
37 8 2 0.060000 3.132587 17.808837 6.870394 # HC
38 8 2 0.060000 2.140231 19.206077 7.339597 # HC
39 8 2 0.060000 2.318403 18.778904 5.624083 # HC
40 8 2 0.060000 3.695908 19.456880 6.518525 # HC
41 9 1 -0.240000 7.078076 13.337859 8.620276 # CT
42 9 2 0.060000 7.503602 12.745151 9.427472 # HC
43 9 2 0.060000 6.689532 14.271556 9.021782 # HC
44 9 2 0.060000 6.270300 12.781769 8.148863 # HC
45 9 2 0.060000 7.848829 13.552969 7.882987 # HC
46 10 1 -0.240000 36.675097 13.758421 26.679542 # CT
47 10 2 0.060000 35.862117 13.452691 27.334930 # HC
48 10 2 0.060000 36.513776 14.784711 26.356019 # HC
49 10 2 0.060000 36.705619 13.104664 25.810267 # HC
50 10 2 0.060000 37.618867 13.691628 27.216910 # HC
51 11 1 -0.240000 6.768872 42.562013 18.323773 # CT
52 11 2 0.060000 6.201143 43.471610 18.138684 # HC
53 11 2 0.060000 6.153913 41.857506 18.880061 # HC
54 11 2 0.060000 7.659159 42.801420 18.901739 # HC
55 11 2 0.060000 7.061284 42.117507 17.374648 # HC
56 12 1 -0.240000 3.790914 5.417281 44.542983 # CT
57 12 2 0.060000 4.011453 5.955190 43.623223 # HC
58 12 2 0.060000 3.495248 6.124812 45.314957 # HC
59 12 2 0.060000 4.676934 4.875509 44.867667 # HC
60 12 2 0.060000 2.980045 4.713621 44.366117 # HC
61 13 1 -0.240000 25.251643 41.489423 4.402359 # CT
62 13 2 0.060000 24.766610 40.598037 4.794934 # HC
63 13 2 0.060000 24.500976 42.155300 3.981562 # HC
64 13 2 0.060000 25.959967 41.205187 3.626822 # HC
65 13 2 0.060000 25.779016 41.999174 5.206074 # HC
66 14 1 -0.240000 41.742902 3.392412 26.674080 # CT
67 14 2 0.060000 41.549478 2.424764 27.132538 # HC
68 14 2 0.060000 41.387085 3.384212 25.645834 # HC
69 14 2 0.060000 42.812438 3.592203 26.686179 # HC
70 14 2 0.060000 41.222633 4.168472 27.231735 # HC
71 15 1 -0.240000 25.983780 10.904593 4.181267 # CT
72 15 2 0.060000 25.521264 10.152285 3.545615 # HC
73 15 2 0.060000 25.840315 10.634966 5.225624 # HC
74 15 2 0.060000 25.525016 11.872597 3.990283 # HC
75 15 2 0.060000 27.048498 10.958548 3.963569 # HC
76 16 1 -0.240000 14.069944 23.764698 43.451181 # CT
77 16 2 0.060000 13.612254 24.190897 44.341583 # HC
78 16 2 0.060000 14.175209 24.537296 42.692252 # HC
79 16 2 0.060000 13.441180 22.963443 43.068277 # HC
80 16 2 0.060000 15.051110 23.367155 43.702576 # HC
81 17 1 -0.240000 25.820656 2.946888 35.523177 # CT
82 17 2 0.060000 25.364502 2.156505 34.930589 # HC
83 17 2 0.060000 26.171312 2.535740 36.467613 # HC
84 17 2 0.060000 25.085362 3.725151 35.717131 # HC
85 17 2 0.060000 26.661430 3.370166 34.977409 # HC
86 18 1 -0.240000 23.496080 8.513679 16.442819 # CT
87 18 2 0.060000 24.519403 8.213981 16.226183 # HC
88 18 2 0.060000 23.493256 9.517701 16.862215 # HC
89 18 2 0.060000 23.058907 7.820426 17.158536 # HC
90 18 2 0.060000 22.912743 8.502613 15.524384 # HC
91 19 1 -0.240000 21.773114 37.430518 30.665915 # CT
92 19 2 0.060000 21.331669 36.850457 31.473749 # HC
93 19 2 0.060000 20.999217 37.706203 29.952441 # HC
94 19 2 0.060000 22.532915 36.834432 30.164563 # HC
95 19 2 0.060000 22.228654 38.330963 31.072866 # HC
96 20 1 -0.240000 17.625298 39.764235 18.958542 # CT
97 20 2 0.060000 17.240951 39.497788 19.941000 # HC
98 20 2 0.060000 16.945981 40.468061 18.481972 # HC
99 20 2 0.060000 17.707822 38.868568 18.346218 # HC
100 20 2 0.060000 18.606415 40.222510 19.064944 # HC
101 21 1 -0.240000 18.562784 40.300862 35.888265 # CT
102 21 2 0.060000 18.756440 39.628337 35.055109 # HC
103 21 2 0.060000 18.077498 41.202866 35.521049 # HC
104 21 2 0.060000 19.503300 40.564544 36.367715 # HC
105 21 2 0.060000 17.913920 39.807737 36.609188 # HC
106 22 1 -0.240000 14.645739 35.777186 21.075008 # CT
107 22 2 0.060000 15.585312 36.243007 21.365101 # HC
108 22 2 0.060000 14.547316 35.803145 19.991679 # HC
109 22 2 0.060000 13.817515 36.318715 21.527514 # HC
110 22 2 0.060000 14.632783 34.743902 21.415719 # HC
111 23 1 -0.240000 40.601387 38.353486 12.539936 # CT
112 23 2 0.060000 40.377248 38.894470 11.622855 # HC
113 23 2 0.060000 40.973291 37.360959 12.293885 # HC
114 23 2 0.060000 39.697094 38.263884 13.138430 # HC
115 23 2 0.060000 41.357893 38.894595 13.104585 # HC
116 24 1 -0.240000 4.717946 16.439519 5.035690 # CT
117 24 2 0.060000 5.597006 16.085352 4.501125 # HC
118 24 2 0.060000 4.016233 15.617931 5.164358 # HC
119 24 2 0.060000 4.243427 17.235921 4.466001 # HC
120 24 2 0.060000 5.015079 16.818871 6.011257 # HC
121 25 1 -0.240000 17.427264 10.575385 12.796332 # CT
122 25 2 0.060000 18.250036 10.542185 13.507587 # HC
123 25 2 0.060000 16.487789 10.688438 13.333519 # HC
124 25 2 0.060000 17.407405 9.651835 12.221327 # HC
125 25 2 0.060000 17.563796 11.419050 12.122896 # HC
126 26 1 -0.240000 19.457352 17.965998 7.420231 # CT
127 26 2 0.060000 20.317361 18.533939 7.071279 # HC
128 26 2 0.060000 19.136433 18.350573 8.386189 # HC
129 26 2 0.060000 19.731262 16.917676 7.520052 # HC
130 26 2 0.060000 18.644356 18.061779 6.703438 # HC
131 27 1 -0.240000 6.596875 10.256580 25.530449 # CT
132 27 2 0.060000 7.340530 9.513358 25.810696 # HC
133 27 2 0.060000 5.946688 10.457185 26.379553 # HC
134 27 2 0.060000 6.003099 9.880288 24.699905 # HC
135 27 2 0.060000 7.097142 11.175479 25.231642 # HC
136 28 1 -0.240000 18.010033 26.624610 16.208608 # CT
137 28 2 0.060000 17.275455 25.878043 15.913694 # HC
138 28 2 0.060000 18.963619 26.138054 16.403287 # HC
139 28 2 0.060000 17.670656 27.131154 17.109833 # HC
140 28 2 0.060000 18.130419 27.351187 15.407659 # HC
141 29 1 -0.240000 5.908517 34.341158 20.177846 # CT
142 29 2 0.060000 6.531920 33.806925 19.463770 # HC
143 29 2 0.060000 6.524261 35.029689 20.752953 # HC
144 29 2 0.060000 5.435739 33.628705 20.850796 # HC
145 29 2 0.060000 5.142157 34.899306 19.643909 # HC
146 30 1 -0.240000 31.331883 24.421346 31.663120 # CT
147 30 2 0.060000 31.127050 24.991613 32.566879 # HC
148 30 2 0.060000 32.278436 24.746230 31.235977 # HC
149 30 2 0.060000 30.533466 24.585015 30.942209 # HC
150 30 2 0.060000 31.388582 23.362549 31.907378 # HC
151 31 1 -0.240000 13.405279 5.001812 32.525840 # CT
152 31 2 0.060000 14.207790 5.349604 31.878570 # HC
153 31 2 0.060000 12.754574 5.836820 32.777451 # HC
154 31 2 0.060000 13.829192 4.584939 33.437149 # HC
155 31 2 0.060000 12.829559 4.235902 32.010229 # HC
156 32 1 -0.240000 41.745871 31.319387 20.972343 # CT
157 32 2 0.060000 41.061185 30.979390 21.746648 # HC
158 32 2 0.060000 41.240602 32.039680 20.332152 # HC
159 32 2 0.060000 42.070178 30.468983 20.376015 # HC
160 32 2 0.060000 42.611509 31.789487 21.434516 # HC
161 33 1 -0.240000 23.931593 25.708786 32.425089 # CT
162 33 2 0.060000 23.213637 26.478888 32.150455 # HC
163 33 2 0.060000 23.702720 25.338590 33.422353 # HC
164 33 2 0.060000 24.935350 26.128729 32.415618 # HC
165 33 2 0.060000 23.874691 24.888944 31.711962 # HC
166 34 1 -0.240000 5.874078 4.525556 42.538592 # CT
167 34 2 0.060000 6.895074 4.503960 42.914149 # HC
168 34 2 0.060000 5.181070 4.369397 43.362798 # HC
169 34 2 0.060000 5.742584 3.737504 41.799909 # HC
170 34 2 0.060000 5.677562 5.491329 42.077514 # HC
171 35 1 -0.240000 15.157384 10.336946 17.444140 # CT
172 35 2 0.060000 14.992685 11.369223 17.142115 # HC
173 35 2 0.060000 15.915201 10.303791 18.224253 # HC
174 35 2 0.060000 15.493816 9.757475 16.586821 # HC
175 35 2 0.060000 14.227870 9.917277 17.823364 # HC
176 36 1 -0.240000 45.334442 5.832958 3.530574 # CT
177 36 2 0.060000 45.407319 4.831793 3.110694 # HC
178 36 2 0.060000 45.165501 5.764948 4.603326 # HC
179 36 2 0.060000 44.504920 6.361780 3.065590 # HC
180 36 2 0.060000 46.259990 6.373322 3.342705 # HC
181 37 1 -0.240000 21.276253 2.464826 21.082740 # CT
182 37 2 0.060000 20.791170 3.438746 21.093503 # HC
183 37 2 0.060000 20.597874 1.726395 20.660265 # HC
184 37 2 0.060000 21.536813 2.178145 22.099545 # HC
185 37 2 0.060000 22.179138 2.515987 20.477671 # HC
186 38 1 -0.240000 44.813782 1.562203 27.456451 # CT
187 38 2 0.060000 45.583580 1.392352 26.706450 # HC
188 38 2 0.060000 45.146607 2.331751 28.149983 # HC
189 38 2 0.060000 44.628092 0.638761 28.001193 # HC
190 38 2 0.060000 43.896857 1.885940 26.968218 # HC
191 39 1 -0.240000 32.672922 30.369218 33.445513 # CT
192 39 2 0.060000 31.590485 30.479400 33.456981 # HC
193 39 2 0.060000 32.933572 29.389089 33.051343 # HC
194 39 2 0.060000 33.058200 30.466966 34.458417 # HC
195 39 2 0.060000 33.109447 31.141390 32.815334 # HC
196 40 1 -0.240000 9.814441 28.808574 10.818733 # CT
197 40 2 0.060000 9.778947 29.870730 11.052200 # HC
198 40 2 0.060000 10.601674 28.623331 10.090783 # HC
199 40 2 0.060000 8.857599 28.495833 10.405674 # HC
200 40 2 0.060000 10.019533 28.244389 11.726235 # HC
201 41 1 -0.240000 19.670642 11.953994 15.187391 # CT
202 41 2 0.060000 20.471803 12.681082 15.071520 # HC
203 41 2 0.060000 18.864521 12.189185 14.495425 # HC
204 41 2 0.060000 19.294355 11.988443 16.207779 # HC
205 41 2 0.060000 20.051852 10.957282 14.974855 # HC
206 42 1 -0.240000 4.460863 28.508881 34.311997 # CT
207 42 2 0.060000 4.682722 29.034283 33.385351 # HC
208 42 2 0.060000 3.964256 29.186696 35.003307 # HC
209 42 2 0.060000 5.387237 28.151474 34.757038 # HC
210 42 2 0.060000 3.809256 27.663082 34.102327 # HC
211 43 1 -0.240000 15.625039 19.231123 39.147130 # CT
212 43 2 0.060000 16.573955 18.903754 38.727213 # HC
213 43 2 0.060000 15.805355 19.766316 40.077193 # HC
214 43 2 0.060000 14.996960 18.364511 39.343266 # HC
215 43 2 0.060000 15.123875 19.889895 38.440885 # HC
216 44 1 -0.240000 5.668057 40.535131 37.809913 # CT
217 44 2 0.060000 6.586525 40.008039 37.559851 # HC
218 44 2 0.060000 5.909503 41.448405 38.349908 # HC
219 44 2 0.060000 5.043328 39.899245 38.433878 # HC
220 44 2 0.060000 5.132859 40.784837 36.896054 # HC
221 45 1 -0.240000 2.169360 45.599432 43.479235 # CT
222 45 2 0.060000 2.291543 44.559417 43.183633 # HC
223 45 2 0.060000 2.397979 46.245890 42.634375 # HC
224 45 2 0.060000 2.845411 45.824594 44.301566 # HC
225 45 2 0.060000 1.142543 45.767853 43.797368 # HC
226 46 1 -0.240000 1.548773 28.752128 34.416483 # CT
227 46 2 0.060000 1.368357 27.796568 33.928327 # HC
228 46 2 0.060000 2.613038 28.977196 34.391028 # HC
229 46 2 0.060000 1.213671 28.700220 35.450399 # HC
230 46 2 0.060000 1.000049 29.534529 33.896214 # HC
231 47 1 -0.240000 14.889510 30.243372 8.222786 # CT
232 47 2 0.060000 15.672121 30.851173 8.672272 # HC
233 47 2 0.060000 13.920043 30.696154 8.420487 # HC
234 47 2 0.060000 14.916577 29.243105 8.650223 # HC
235 47 2 0.060000 15.049270 30.183038 7.148186 # HC
236 48 1 -0.240000 12.903603 14.985598 26.037501 # CT
237 48 2 0.060000 13.867685 15.463559 26.198868 # HC
238 48 2 0.060000 12.108198 15.711326 26.194383 # HC
239 48 2 0.060000 12.785723 14.161223 26.737844 # HC
240 48 2 0.060000 12.852779 14.606280 25.018942 # HC
241 49 1 -0.240000 39.073150 11.149133 34.454376 # CT
242 49 2 0.060000 38.812869 10.403637 35.202996 # HC
243 49 2 0.060000 38.171353 11.480273 33.943426 # HC
244 49 2 0.060000 39.760046 10.713136 33.731845 # HC
245 49 2 0.060000 39.548327 11.999476 34.939198 # HC
246 50 1 -0.240000 43.010778 30.959292 37.455339 # CT
247 50 2 0.060000 42.465029 30.957408 38.396665 # HC
248 50 2 0.060000 43.141705 31.984154 37.114048 # HC
249 50 2 0.060000 42.450854 30.397664 36.710337 # HC
250 50 2 0.060000 43.985505 30.497957 37.600270 # HC
251 51 1 -0.240000 7.091625 16.252284 29.786891 # CT
252 51 2 0.060000 7.401024 16.019048 30.803658 # HC
253 51 2 0.060000 7.528548 17.201514 29.483539 # HC
254 51 2 0.060000 6.006602 16.322592 29.745044 # HC
255 51 2 0.060000 7.430302 15.466016 29.115319 # HC
256 52 1 -0.240000 8.771641 1.605184 12.914506 # CT
257 52 2 0.060000 8.190485 1.842669 12.025799 # HC
258 52 2 0.060000 8.317688 2.079534 13.782193 # HC
259 52 2 0.060000 9.788729 1.971726 12.791422 # HC
260 52 2 0.060000 8.789683 0.526837 13.058629 # HC
261 53 1 -0.240000 32.500672 30.980127 44.870356 # CT
262 53 2 0.060000 33.299705 31.701525 45.028698 # HC
263 53 2 0.060000 32.909139 30.080841 44.413845 # HC
264 53 2 0.060000 31.748144 31.410861 44.212984 # HC
265 53 2 0.060000 32.045691 30.727269 45.825858 # HC
266 54 1 -0.240000 36.557618 1.043494 22.722132 # CT
267 54 2 0.060000 37.197112 0.251098 23.105666 # HC
268 54 2 0.060000 35.771925 0.609691 22.106938 # HC
269 54 2 0.060000 37.151124 1.729870 22.121626 # HC
270 54 2 0.060000 36.110312 1.583322 23.554256 # HC
271 55 1 -0.240000 22.694357 33.747090 6.145007 # CT
272 55 2 0.060000 23.387163 34.226101 5.456162 # HC
273 55 2 0.060000 22.235841 34.501345 6.781266 # HC
274 55 2 0.060000 23.233315 33.031010 6.762035 # HC
275 55 2 0.060000 21.921116 33.229905 5.580608 # HC
276 56 1 -0.240000 44.268093 34.738322 13.471675 # CT
277 56 2 0.060000 43.943599 33.744890 13.168793 # HC
278 56 2 0.060000 45.033599 34.651275 14.240041 # HC
279 56 2 0.060000 43.419071 35.292469 13.866708 # HC
280 56 2 0.060000 44.676097 35.264667 12.611197 # HC
281 57 1 -0.240000 45.147448 8.912786 23.603689 # CT
282 57 2 0.060000 44.825251 8.247534 24.402168 # HC
283 57 2 0.060000 46.070304 9.409721 23.895842 # HC
284 57 2 0.060000 44.376623 9.658376 23.419582 # HC
285 57 2 0.060000 45.317613 8.335556 22.697170 # HC
286 58 1 -0.240000 32.921146 36.923855 35.266263 # CT
287 58 2 0.060000 32.212568 36.196661 35.657477 # HC
288 58 2 0.060000 33.875795 36.810541 35.775939 # HC
289 58 2 0.060000 32.538414 37.928806 35.432273 # HC
290 58 2 0.060000 33.057822 36.759442 34.199392 # HC
291 59 1 -0.240000 20.298343 37.428772 21.558949 # CT
292 59 2 0.060000 19.873286 36.797990 20.780886 # HC
293 59 2 0.060000 20.938838 36.829073 22.202447 # HC
294 59 2 0.060000 19.496183 37.865064 22.150690 # HC
295 59 2 0.060000 20.885055 38.222953 21.101811 # HC
296 60 1 -0.240000 8.854798 6.125154 21.408414 # CT
297 60 2 0.060000 9.229363 5.670875 20.493388 # HC
298 60 2 0.060000 8.488726 5.347673 22.075855 # HC
299 60 2 0.060000 8.042986 6.808650 21.168071 # HC
300 60 2 0.060000 9.658076 6.673414 21.896352 # HC
301 61 1 -0.240000 15.792908 40.767572 31.136626 # CT
302 61 2 0.060000 14.930658 40.714101 30.475106 # HC
303 61 2 0.060000 15.471183 41.083006 32.127058 # HC
304 61 2 0.060000 16.508822 41.485707 30.742014 # HC
305 61 2 0.060000 16.260979 39.787511 31.202338 # HC
306 62 1 -0.240000 25.293478 35.917603 34.055840 # CT
307 62 2 0.060000 26.165927 35.272473 34.136963 # HC
308 62 2 0.060000 25.610460 36.925137 33.794384 # HC
309 62 2 0.060000 24.767961 35.938438 35.008398 # HC
310 62 2 0.060000 24.629559 35.534394 33.283641 # HC
311 63 1 -0.240000 34.974481 41.487072 35.628004 # CT
312 63 2 0.060000 34.930551 40.418619 35.426957 # HC
313 63 2 0.060000 35.908579 41.722858 36.133799 # HC
314 63 2 0.060000 34.137010 41.771623 36.261757 # HC
315 63 2 0.060000 34.921785 42.035201 34.689545 # HC
316 64 1 -0.240000 41.365874 23.500629 3.095432 # CT
317 64 2 0.060000 40.725004 22.988882 3.810515 # HC
318 64 2 0.060000 42.396722 23.465003 3.441906 # HC
319 64 2 0.060000 41.050053 24.537754 3.002706 # HC
320 64 2 0.060000 41.291734 23.010911 2.126614 # HC
321 65 1 -0.240000 16.287369 27.648400 6.550075 # CT
322 65 2 0.060000 16.040247 28.599255 6.082372 # HC
323 65 2 0.060000 15.387068 27.207480 6.973171 # HC
324 65 2 0.060000 17.017135 27.811785 7.340466 # HC
325 65 2 0.060000 16.705022 26.975076 5.804335 # HC
326 66 1 -0.240000 32.677183 9.731611 35.589184 # CT
327 66 2 0.060000 33.501632 10.276164 36.044911 # HC
328 66 2 0.060000 31.937487 10.437798 35.217550 # HC
329 66 2 0.060000 32.217570 9.081811 36.331131 # HC
330 66 2 0.060000 33.052006 9.130675 34.763163 # HC
331 67 1 -0.240000 5.906464 13.662067 20.977958 # CT
332 67 2 0.060000 4.972968 14.142483 21.263835 # HC
333 67 2 0.060000 5.709257 12.633934 20.681287 # HC
334 67 2 0.060000 6.592313 13.670614 21.822653 # HC
335 67 2 0.060000 6.351334 14.201205 20.144083 # HC
336 68 1 -0.240000 28.554333 18.420229 44.811653 # CT
337 68 2 0.060000 28.847161 17.387259 44.988194 # HC
338 68 2 0.060000 29.291230 19.086930 45.254883 # HC
339 68 2 0.060000 27.581391 18.603614 45.263011 # HC
340 68 2 0.060000 28.497539 18.603134 43.740556 # HC
341 69 1 -0.240000 35.901004 6.784408 18.256573 # CT
342 69 2 0.060000 36.965628 6.643984 18.432067 # HC
343 69 2 0.060000 35.376961 6.813010 19.209738 # HC
344 69 2 0.060000 35.520177 5.959449 17.657922 # HC
345 69 2 0.060000 35.741224 7.721158 17.726575 # HC
346 70 1 -0.240000 34.319568 3.791846 8.110681 # CT
347 70 2 0.060000 34.421818 4.814023 8.469346 # HC
348 70 2 0.060000 33.314317 3.432475 8.321123 # HC
349 70 2 0.060000 35.044853 3.156341 8.614729 # HC
350 70 2 0.060000 34.497276 3.764514 7.037554 # HC
351 71 1 -0.240000 6.693269 12.526671 6.068626 # CT
352 71 2 0.060000 7.050711 11.819448 5.322963 # HC
353 71 2 0.060000 7.494991 12.751290 6.769161 # HC
354 71 2 0.060000 5.852679 12.092863 6.606389 # HC
355 71 2 0.060000 6.374692 13.443069 5.576029 # HC
356 72 1 -0.240000 11.581134 27.235555 13.914501 # CT
357 72 2 0.060000 11.420873 27.783021 14.841075 # HC
358 72 2 0.060000 11.177873 26.229762 14.013102 # HC
359 72 2 0.060000 12.647607 27.179884 13.705925 # HC
360 72 2 0.060000 11.078206 27.749521 13.097904 # HC
361 73 1 -0.240000 13.363361 22.215899 37.073641 # CT
362 73 2 0.060000 12.434058 22.750920 36.889005 # HC
363 73 2 0.060000 14.123668 22.916169 37.413518 # HC
364 73 2 0.060000 13.695511 21.737922 36.154301 # HC
365 73 2 0.060000 13.200239 21.458593 37.837714 # HC
366 74 1 -0.240000 26.834344 40.733152 21.335271 # CT
367 74 2 0.060000 26.816212 40.301008 22.333702 # HC
368 74 2 0.060000 27.861025 40.776752 20.977517 # HC
369 74 2 0.060000 26.418488 41.738139 21.367428 # HC
370 74 2 0.060000 26.241671 40.116747 20.662434 # HC
371 75 1 -0.240000 26.074571 16.578941 10.623446 # CT
372 75 2 0.060000 25.565952 17.135376 11.408066 # HC
373 75 2 0.060000 26.602626 17.271762 9.971434 # HC
374 75 2 0.060000 25.343434 16.020142 10.042798 # HC
375 75 2 0.060000 26.786259 15.888490 11.071447 # HC
376 76 1 -0.240000 20.991079 15.668194 29.479845 # CT
377 76 2 0.060000 21.520004 16.375947 30.114876 # HC
378 76 2 0.060000 19.985611 16.036094 29.285816 # HC
379 76 2 0.060000 20.934085 14.703855 29.980616 # HC
380 76 2 0.060000 21.524581 15.556861 28.538087 # HC
381 77 1 -0.240000 39.057707 40.569175 23.810962 # CT
382 77 2 0.060000 40.090352 40.290144 23.611648 # HC
383 77 2 0.060000 38.530270 39.721920 24.244474 # HC
384 77 2 0.060000 38.574408 40.859671 22.880368 # HC
385 77 2 0.060000 39.035766 41.404944 24.507335 # HC
386 78 1 -0.240000 43.954317 12.235564 34.559928 # CT
387 78 2 0.060000 43.156316 12.794087 35.044891 # HC
388 78 2 0.060000 44.472602 12.881942 33.854564 # HC
389 78 2 0.060000 43.531122 11.385166 34.029174 # HC
390 78 2 0.060000 44.657224 11.881054 35.311042 # HC
391 79 1 -0.240000 39.637969 32.139392 35.639913 # CT
392 79 2 0.060000 39.912355 32.705006 34.751806 # HC
393 79 2 0.060000 39.027775 32.761226 36.291794 # HC
394 79 2 0.060000 40.538883 31.834635 36.168540 # HC
395 79 2 0.060000 39.072876 31.256713 35.347549 # HC
396 80 1 -0.240000 45.589660 10.358385 3.024523 # CT
397 80 2 0.060000 46.259805 9.501286 3.009416 # HC
398 80 2 0.060000 45.277711 10.556891 4.047873 # HC
399 80 2 0.060000 44.714828 10.145598 2.413489 # HC
400 80 2 0.060000 46.106254 11.229759 2.627325 # HC
401 81 1 -0.240000 28.065582 23.572329 40.972485 # CT
402 81 2 0.060000 27.956211 24.654379 40.938599 # HC
403 81 2 0.060000 27.159817 23.104153 40.592533 # HC
404 81 2 0.060000 28.233285 23.256738 42.000224 # HC
405 81 2 0.060000 28.912990 23.274026 40.358609 # HC
406 82 1 -0.240000 19.208521 22.772076 14.242578 # CT
407 82 2 0.060000 19.215065 23.778773 13.829711 # HC
408 82 2 0.060000 18.181140 22.456093 14.411709 # HC
409 82 2 0.060000 19.750607 22.763440 15.185997 # HC
410 82 2 0.060000 19.687259 22.089992 13.542936 # HC
411 83 1 -0.240000 1.747826 40.997698 2.135057 # CT
412 83 2 0.060000 1.174089 40.269806 1.565022 # HC
413 83 2 0.060000 1.306436 41.114296 3.122752 # HC
414 83 2 0.060000 1.736068 41.954640 1.617279 # HC
415 83 2 0.060000 2.774692 40.652085 2.235185 # HC
416 84 1 -0.240000 20.644643 19.573637 0.856676 # CT
417 84 2 0.060000 20.301888 20.595828 1.003597 # HC
418 84 2 0.060000 21.461570 19.564781 0.137987 # HC
419 84 2 0.060000 19.823890 18.966434 0.480325 # HC
420 84 2 0.060000 20.991219 19.167488 1.804756 # HC
421 85 1 -0.240000 22.343945 23.866694 21.752077 # CT
422 85 2 0.060000 21.428910 23.453315 22.171327 # HC
423 85 2 0.060000 22.133930 24.838996 21.311073 # HC
424 85 2 0.060000 22.727117 23.195985 20.985723 # HC
425 85 2 0.060000 23.085823 23.978485 22.540142 # HC
426 86 1 -0.240000 18.511131 31.406914 13.624397 # CT
427 86 2 0.060000 18.803464 30.588600 14.279259 # HC
428 86 2 0.060000 17.808679 32.054729 14.144837 # HC
429 86 2 0.060000 18.039555 31.004948 12.729965 # HC
430 86 2 0.060000 19.392786 31.979380 13.343514 # HC
431 87 1 -0.240000 34.950433 34.301456 11.929160 # CT
432 87 2 0.060000 34.815041 33.560888 12.714761 # HC
433 87 2 0.060000 35.611584 35.089583 12.283699 # HC
434 87 2 0.060000 33.985786 34.729299 11.663871 # HC
435 87 2 0.060000 35.389304 33.826095 11.054316 # HC
436 88 1 -0.240000 16.213421 24.851603 2.147187 # CT
437 88 2 0.060000 15.197642 24.482533 2.021011 # HC
438 88 2 0.060000 16.272094 25.879646 1.795554 # HC
439 88 2 0.060000 16.898513 24.231949 1.572167 # HC
440 88 2 0.060000 16.485459 24.812292 3.199982 # HC
441 89 1 -0.240000 27.828919 44.976705 39.448870 # CT
442 89 2 0.060000 27.362621 45.576812 40.227574 # HC
443 89 2 0.060000 28.691572 45.506672 39.050216 # HC
444 89 2 0.060000 27.111873 44.798382 38.650111 # HC
445 89 2 0.060000 28.149607 44.024969 39.867541 # HC
446 90 1 -0.240000 39.229356 20.340305 43.073519 # CT
447 90 2 0.060000 39.186456 19.739201 43.979485 # HC
448 90 2 0.060000 38.597385 19.891242 42.310029 # HC
449 90 2 0.060000 40.255872 20.383612 42.715246 # HC
450 90 2 0.060000 38.877730 21.347148 43.289282 # HC
451 91 1 -0.240000 2.173649 12.581487 24.022890 # CT
452 91 2 0.060000 1.957738 13.639863 24.153903 # HC
453 91 2 0.060000 3.188154 12.461958 23.648117 # HC
454 91 2 0.060000 1.471128 12.153445 23.310701 # HC
455 91 2 0.060000 2.077584 12.070669 24.978800 # HC
456 92 1 -0.240000 24.750774 3.499353 17.289913 # CT
457 92 2 0.060000 25.021593 4.066264 18.178288 # HC
458 92 2 0.060000 24.999060 2.450541 17.439278 # HC
459 92 2 0.060000 25.300212 3.883650 16.432939 # HC
460 92 2 0.060000 23.682261 3.596939 17.109124 # HC
461 93 1 -0.240000 44.108737 18.885242 44.945592 # CT
462 93 2 0.060000 43.451522 18.248884 45.534708 # HC
463 93 2 0.060000 43.512029 19.597478 44.379356 # HC
464 93 2 0.060000 44.688524 18.271330 44.259350 # HC
465 93 2 0.060000 44.782870 19.423274 45.608912 # HC
466 94 1 -0.240000 29.875410 25.281349 39.818982 # CT
467 94 2 0.060000 29.459826 24.777292 40.689130 # HC
468 94 2 0.060000 29.078251 25.786349 39.277249 # HC
469 94 2 0.060000 30.349361 24.549606 39.167912 # HC
470 94 2 0.060000 30.614191 26.012136 40.141599 # HC
471 95 1 -0.240000 35.089854 12.194198 29.344291 # CT
472 95 2 0.060000 35.434752 12.267659 28.314927 # HC
473 95 2 0.060000 35.775162 11.568684 29.912662 # HC
474 95 2 0.060000 34.095511 11.752721 29.363015 # HC
475 95 2 0.060000 35.053977 13.187691 29.786572 # HC
476 96 1 -0.240000 21.234248 36.131491 8.937346 # CT
477 96 2 0.060000 20.756977 36.922027 9.512851 # HC
478 96 2 0.060000 21.251468 35.215407 9.524249 # HC
479 96 2 0.060000 22.253178 36.425086 8.693309 # HC
480 96 2 0.060000 20.675407 35.963429 8.018989 # HC
481 97 1 -0.240000 33.569603 17.501343 44.322408 # CT
482 97 2 0.060000 34.638509 17.587445 44.138107 # HC
483 97 2 0.060000 33.057629 18.361773 43.896374 # HC
484 97 2 0.060000 33.388148 17.465647 45.394681 # HC
485 97 2 0.060000 33.194108 16.590537 43.860495 # HC
486 98 1 -0.240000 39.727510 4.739336 14.577466 # CT
487 98 2 0.060000 40.597663 5.329589 14.297507 # HC
488 98 2 0.060000 39.891177 4.293858 15.556611 # HC
489 98 2 0.060000 39.571335 3.952342 13.842471 # HC
490 98 2 0.060000 38.849870 5.381515 14.613280 # HC
491 99 1 -0.240000 22.766689 20.378020 24.505882 # CT
492 99 2 0.060000 23.475316 19.990275 25.234883 # HC
493 99 2 0.060000 23.307743 20.769745 23.646944 # HC
494 99 2 0.060000 22.179647 21.174425 24.958752 # HC
495 99 2 0.060000 22.104050 19.577679 24.182941 # HC
496 100 1 -0.240000 18.291872 5.614717 31.337839 # CT
497 100 2 0.060000 17.926584 6.502161 30.825053 # HC
498 100 2 0.060000 18.825678 5.910304 32.238750 # HC
499 100 2 0.060000 18.964608 5.067268 30.680803 # HC
500 100 2 0.060000 17.450658 4.979128 31.606752 # HC
501 101 1 -0.240000 21.423347 21.569075 17.737294 # CT
502 101 2 0.060000 22.430950 21.801037 18.076221 # HC
503 101 2 0.060000 21.101552 22.318275 17.016802 # HC
504 101 2 0.060000 20.745313 21.569514 18.588317 # HC
505 101 2 0.060000 21.415543 20.587501 17.267847 # HC
506 102 1 -0.240000 6.550521 7.907260 41.206923 # CT
507 102 2 0.060000 7.365540 8.565176 41.501595 # HC
508 102 2 0.060000 5.912551 7.712672 42.066628 # HC
509 102 2 0.060000 6.957809 6.968282 40.837592 # HC
510 102 2 0.060000 5.966183 8.382873 40.421895 # HC
511 103 1 -0.240000 7.285982 15.021783 25.749445 # CT
512 103 2 0.060000 7.379679 14.906688 24.671523 # HC
513 103 2 0.060000 6.785460 15.962027 25.971664 # HC
514 103 2 0.060000 8.275706 15.022068 26.201569 # HC
515 103 2 0.060000 6.703103 14.196379 26.153040 # HC
516 104 1 -0.240000 25.470595 24.005821 38.717185 # CT
517 104 2 0.060000 26.388467 23.473688 38.475757 # HC
518 104 2 0.060000 25.668663 25.075310 38.747591 # HC
519 104 2 0.060000 25.105259 23.676885 39.687907 # HC
520 104 2 0.060000 24.719989 23.797420 37.957521 # HC
521 105 1 -0.240000 43.825883 40.591491 44.631781 # CT
522 105 2 0.060000 42.988805 39.959750 44.341703 # HC
523 105 2 0.060000 43.957704 41.380305 43.893976 # HC
524 105 2 0.060000 44.731618 39.990969 44.686447 # HC
525 105 2 0.060000 43.625439 41.034940 45.604973 # HC
526 106 1 -0.240000 39.331124 1.406273 23.013752 # CT
527 106 2 0.060000 39.613001 1.028830 23.994580 # HC
528 106 2 0.060000 38.420821 0.910820 22.682336 # HC
529 106 2 0.060000 40.131669 1.206429 22.304415 # HC
530 106 2 0.060000 39.159006 2.478988 23.073647 # HC
531 107 1 -0.240000 45.379860 35.524835 16.757086 # CT
532 107 2 0.060000 45.243320 35.125803 17.760117 # HC
533 107 2 0.060000 44.413449 35.807108 16.344369 # HC
534 107 2 0.060000 45.837052 34.766847 16.124314 # HC
535 107 2 0.060000 46.025602 36.399561 16.799511 # HC
536 108 1 -0.240000 20.648348 31.720137 30.067206 # CT
537 108 2 0.060000 20.717588 32.787085 29.865296 # HC
538 108 2 0.060000 21.051456 31.511221 31.056054 # HC
539 108 2 0.060000 21.218346 31.171840 29.319916 # HC
540 108 2 0.060000 19.606040 31.410379 30.027562 # HC
541 109 1 -0.240000 26.214478 26.657517 24.347213 # CT
542 109 2 0.060000 25.389440 26.666471 25.056561 # HC
543 109 2 0.060000 26.460888 27.678963 24.064561 # HC
544 109 2 0.060000 25.925087 26.095843 23.461354 # HC
545 109 2 0.060000 27.082488 26.188803 24.806336 # HC
546 110 1 -0.240000 29.696816 2.877546 22.680338 # CT
547 110 2 0.060000 29.665912 3.713934 23.375636 # HC
548 110 2 0.060000 30.575186 2.268591 22.884305 # HC
549 110 2 0.060000 29.745875 3.254930 21.660953 # HC
550 110 2 0.060000 28.800323 2.272726 22.800429 # HC
551 111 1 -0.240000 26.177385 6.690112 16.947798 # CT
552 111 2 0.060000 26.560616 6.955861 17.930881 # HC
553 111 2 0.060000 26.403488 5.646160 16.740420 # HC
554 111 2 0.060000 26.645706 7.319368 16.193688 # HC
555 111 2 0.060000 25.099759 6.839047 16.926172 # HC
556 112 1 -0.240000 32.950537 23.237840 2.470900 # CT
557 112 2 0.060000 32.124534 22.684148 2.029217 # HC
558 112 2 0.060000 33.078053 22.933307 3.507704 # HC
559 112 2 0.060000 32.735811 24.303753 2.429762 # HC
560 112 2 0.060000 33.863743 23.030180 1.916950 # HC
561 113 1 -0.240000 13.563546 19.350369 30.881685 # CT
562 113 2 0.060000 13.751470 18.278867 30.904252 # HC