8002
# CELL(abcABC):   87.41873    87.41873    87.41873    90.00000    90.00000    90.00000  Step:         100  Bead:       0 x_centroid{angstrom}  cell{atomic_unit}
       C  9.58204e+00  4.33333e+01  3.67352e+01
       H  9.58781e+00  4.43079e+01  3.62279e+01
       H  8.69553e+00  4.27635e+01  3.64247e+01
       H  9.55663e+00  4.34878e+01  3.78222e+01
       H  1.04899e+01  4.27780e+01  3.64637e+01
       C  4.39075e+00  2.40061e+01  4.47960e+01
       H  3.48860e+00  2.34274e+01  4.45576e+01
       H  5.13325e+00  2.33487e+01  4.52670e+01
       H  4.13526e+00  2.48181e+01  4.54891e+01
       H  4.80864e+00  2.44304e+01  4.38740e+01
       C  3.52525e+01  9.22924e-01  1.74258e+00
       H  3.60586e+01  1.54745e+00  1.33439e+00
       H  3.47105e+01  4.39355e-01  9.18591e-01
       H  3.45586e+01  1.55006e+00  2.31860e+00
       H  3.56818e+01  1.54167e-01  2.39960e+00
       C  5.23858e+00  4.18463e+01  6.04012e+00
       H  6.22888e+00  4.17418e+01  5.57728e+00
       H  5.35353e+00  4.21111e+01  7.09994e+00
       H  4.69527e+00  4.08961e+01  5.95816e+00
       H  4.67371e+00  4.26352e+01  5.52638e+00
       C  3.44894e+01  1.19032e+01  2.05964e+01
       H  3.40292e+01  1.21406e+01  2.15645e+01
       H  3.48236e+01  1.28287e+01  2.01090e+01
       H  3.37532e+01  1.14001e+01  1.99558e+01
       H  3.53514e+01  1.12413e+01  2.07545e+01
       C  3.65808e+01  1.48490e+01  1.35532e+01
       H  3.62150e+01  1.40230e+01  1.29290e+01
       H  3.76757e+01  1.48031e+01  1.36226e+01
       H  3.61485e+01  1.47705e+01  1.45594e+01
       H  3.62876e+01  1.58057e+01  1.31027e+01
       C  8.76941e+00  2.99494e+01  1.51880e+01
       H  9.81865e+00  2.96243e+01  1.52121e+01
       H  8.34668e+00  2.97490e+01  1.41942e+01
       H  8.71696e+00  3.10260e+01  1.53982e+01
       H  8.19647e+00  2.94009e+01  1.59478e+01
       C  3.01468e+00  1.86951e+01  6.72683e+00
       H  3.20411e+00  1.76303e+01  6.91842e+00
       H  2.15365e+00  1.90279e+01  7.32152e+00
       H  2.80376e+00  1.88437e+01  5.65911e+00
       H  3.89837e+00  1.92823e+01  7.01011e+00
       C  8.22758e+00  1.29513e+01  8.56141e+00
       H  7.76960e+00  1.22296e+01  9.25102e+00
       H  8.48846e+00  1.38666e+01  9.10928e+00
       H  7.51474e+00  1.31950e+01  7.76315e+00
       H  9.13404e+00  1.25152e+01  8.12108e+00
       C  3.65120e+01  1.44006e+01  2.74040e+01
       H  3.55734e+01  1.42526e+01  2.79555e+01
       H  3.65047e+01  1.53973e+01  2.69464e+01
       H  3.66024e+01  1.36320e+01  2.66223e+01
       H  3.73634e+01  1.43204e+01  2.80931e+01
       C  6.58516e+00  4.22608e+01  1.85215e+01
       H  6.27106e+00  4.31646e+01  1.79824e+01
       H  5.73727e+00  4.18634e+01  1.90950e+01
       H  7.40627e+00  4.25095e+01  1.92069e+01
       H  6.92580e+00  4.15051e+01  1.78003e+01
       C  4.63556e+00  6.00986e+00  4.55533e+01
       H  4.89521e+00  7.03483e+00  4.52491e+01
       H  3.93387e+00  6.04766e+00  4.63983e+01
       H  5.54560e+00  5.47654e+00  4.58548e+01
       H  4.16520e+00  5.48495e+00  4.47117e+01
       C  2.59045e+01  4.17266e+01  3.91918e+00
       H  2.56666e+01  4.08006e+01  4.45789e+00
       H  2.50282e+01  4.23881e+01  3.91558e+00
       H  2.61908e+01  4.14848e+01  2.88679e+00
       H  2.67381e+01  4.22338e+01  4.41927e+00
       C  4.17962e+01  3.00889e+00  2.66100e+01
       H  4.19323e+01  1.91925e+00  2.65886e+01
       H  4.11060e+01  3.30781e+00  2.58098e+01
       H  4.27660e+01  3.50339e+00  2.64609e+01
       H  4.13783e+01  3.30451e+00  2.75817e+01
       C  2.58122e+01  1.11975e+01  4.20324e+00
       H  2.49231e+01  1.05744e+01  4.03728e+00
       H  2.64636e+01  1.07159e+01  4.94455e+00
       H  2.55033e+01  1.21851e+01  4.57097e+00
       H  2.63601e+01  1.13128e+01  3.25890e+00
       C  1.38509e+01  2.47235e+01  4.38277e+01
       H  1.37026e+01  2.55040e+01  4.45858e+01
       H  1.35565e+01  2.51103e+01  4.28419e+01
       H  1.32342e+01  2.38498e+01  4.40759e+01
       H  1.49087e+01  2.44315e+01  4.38045e+01
       C  2.63477e+01  2.77418e+00  3.54907e+01
       H  2.55152e+01  2.17201e+00  3.51018e+01
       H  2.70578e+01  2.12195e+00  3.60168e+01
       H  2.59595e+01  3.52931e+00  3.61877e+01
       H  2.68579e+01  3.27497e+00  3.46571e+01
       C  2.37508e+01  9.41694e+00  1.60747e+01
       H  2.45561e+01  9.44222e+00  1.53284e+01
       H  2.35961e+01  1.04246e+01  1.64830e+01
       H  2.40271e+01  8.73200e+00  1.68879e+01
       H  2.28241e+01  9.06688e+00  1.56007e+01
       C  2.22011e+01  3.68807e+01  2.97023e+01
       H  2.16987e+01  3.65866e+01  3.06330e+01
       H  2.14510e+01  3.70374e+01  2.89158e+01
       H  2.28947e+01  3.60868e+01  2.93944e+01
       H  2.27612e+01  3.78114e+01  2.98662e+01
       C  1.75855e+01  4.05480e+01  1.72214e+01
       H  1.67680e+01  4.00257e+01  1.77364e+01
       H  1.71722e+01  4.13544e+01  1.66012e+01
       H  1.81290e+01  3.98383e+01  1.65837e+01
       H  1.82739e+01  4.09722e+01  1.79654e+01
       C  1.91826e+01  3.96740e+01  3.67515e+01
       H  1.91884e+01  3.88606e+01  3.60131e+01
       H  1.87402e+01  4.05724e+01  3.63003e+01
       H  2.02121e+01  3.98879e+01  3.70677e+01
       H  1.85864e+01  3.93755e+01  3.76241e+01
       C  1.33759e+01  3.71697e+01  2.17345e+01
       H  1.39126e+01  3.79372e+01  2.23080e+01
       H  1.38407e+01  3.70603e+01  2.07449e+01
       H  1.23258e+01  3.74680e+01  2.16145e+01
       H  1.34262e+01  3.62117e+01  2.22697e+01
       C  4.17281e+01  3.80759e+01  1.19036e+01
       H  4.08704e+01  3.79486e+01  1.12298e+01
       H  4.26041e+01  3.75632e+01  1.14850e+01
       H  4.14879e+01  3.76473e+01  1.28855e+01
       H  4.19479e+01  3.91463e+01  1.20150e+01
       C  4.54736e+00  1.53292e+01  4.74282e+00
       H  5.35466e+00  1.54249e+01  4.00393e+00
       H  4.15982e+00  1.43017e+01  4.72815e+00
       H  3.73864e+00  1.60295e+01  4.49363e+00
       H  4.93575e+00  1.55597e+01  5.74380e+00
       C  1.72791e+01  9.29460e+00  1.22729e+01
       H  1.82289e+01  9.38234e+00  1.28169e+01
       H  1.64543e+01  9.62369e+00  1.29197e+01
       H  1.71190e+01  8.24859e+00  1.19810e+01
       H  1.73122e+01  9.92480e+00  1.13739e+01
       C  1.97237e+01  1.77534e+01  7.89306e+00
       H  2.03273e+01  1.83816e+01  7.22416e+00
       H  1.94228e+01  1.83378e+01  8.77314e+00
       H  2.03166e+01  1.68871e+01  8.21574e+00
       H  1.88287e+01  1.74049e+01  7.35992e+00
       C  5.91787e+00  9.10344e+00  2.55537e+01
       H  6.55115e+00  8.20871e+00  2.55929e+01
       H  4.92703e+00  8.86721e+00  2.59633e+01
       H  5.81575e+00  9.43913e+00  2.45134e+01
       H  6.37580e+00  9.90341e+00  2.61493e+01
       C  1.83735e+01  2.70967e+01  1.55497e+01
       H  1.72890e+01  2.69932e+01  1.54168e+01
       H  1.88899e+01  2.65455e+01  1.47540e+01
       H  1.86637e+01  2.66872e+01  1.65260e+01
       H  1.86508e+01  2.81578e+01  1.54983e+01
       C  5.33417e+00  3.52900e+01  2.14575e+01
       H  5.44828e+00  3.51708e+01  2.03715e+01
       H  6.18116e+00  3.58667e+01  2.18531e+01
       H  5.30828e+00  3.43009e+01  2.19348e+01
       H  4.39759e+00  3.58220e+01  2.16719e+01
       C  3.07593e+01  2.38437e+01  3.14624e+01
       H  3.09923e+01  2.48990e+01  3.16583e+01
       H  3.16830e+01  2.33056e+01  3.12103e+01
       H  3.00530e+01  2.37729e+01  3.06250e+01
       H  3.03132e+01  2.33979e+01  3.23617e+01
       C  1.28011e+01  4.61799e+00  3.27223e+01
       H  1.38486e+01  4.50707e+00  3.24107e+01
       H  1.26539e+01  5.61082e+00  3.31684e+01
       H  1.25580e+01  3.84392e+00  3.34623e+01
       H  1.21455e+01  4.50892e+00  3.18476e+01
       C  4.17438e+01  3.17218e+01  2.12612e+01
       H  4.06460e+01  3.17539e+01  2.12483e+01
       H  4.21319e+01  3.21198e+01  2.03144e+01
       H  4.20784e+01  3.06832e+01  2.13876e+01
       H  4.21181e+01  3.23322e+01  2.20941e+01
       C  2.39279e+01  2.70744e+01  3.25403e+01
       H  2.30640e+01  2.76389e+01  3.21653e+01
       H  2.35759e+01  2.62697e+01  3.31972e+01
       H  2.45885e+01  2.77462e+01  3.31056e+01
       H  2.44788e+01  2.66444e+01  3.16929e+01
       C  6.33707e+00  4.83910e+00  4.26155e+01
       H  7.25035e+00  4.32033e+00  4.22935e+01
       H  5.84484e+00  4.25368e+00  4.34036e+01
       H  5.65831e+00  4.94997e+00  4.17593e+01
       H  6.59745e+00  5.83154e+00  4.30064e+01
       C  1.52736e+01  9.59385e+00  1.73423e+01
       H  1.41961e+01  9.78436e+00  1.72577e+01
       H  1.57554e+01  1.04453e+01  1.78405e+01
       H  1.57043e+01  9.46732e+00  1.63410e+01
       H  1.54404e+01  8.68253e+00  1.79306e+01
       C  4.55401e+01  6.01244e+00  3.59749e+00
       H  4.57826e+01  5.23091e+00  2.86423e+00
       H  4.50601e+01  5.55677e+00  4.47399e+00
       H  4.48567e+01  6.74170e+00  3.14311e+00
       H  4.64626e+01  6.51910e+00  3.91065e+00
       C  2.07901e+01  2.06028e+00  2.04624e+01
       H  2.04128e+01  3.09151e+00  2.04559e+01
       H  2.00272e+01  1.39042e+00  2.00438e+01
       H  2.10171e+01  1.75699e+00  2.14932e+01
       H  2.17041e+01  2.00160e+00  1.98566e+01
       C  4.51331e+01  1.29689e+00  2.74749e+01
       H  4.61279e+01  1.26017e+00  2.70105e+01
       H  4.49807e+01  2.28121e+00  2.79380e+01
       H  4.50579e+01  5.15119e-01  2.82430e+01
       H  4.43652e+01  1.13098e+00  2.67075e+01
       C  3.19556e+01  2.96505e+01  3.46525e+01
       H  3.10563e+01  3.02628e+01  3.47997e+01
       H  3.17408e+01  2.88614e+01  3.39191e+01
       H  3.22486e+01  2.91943e+01  3.56074e+01
       H  3.27727e+01  3.02838e+01  3.42826e+01
       C  9.81424e+00  2.92324e+01  1.07747e+01
       H  1.03404e+01  3.01011e+01  1.11929e+01
       H  1.04550e+01  2.87394e+01  1.00313e+01
       H  8.88408e+00  2.95642e+01  1.02940e+01
       H  9.57634e+00  2.85251e+01  1.15808e+01
       C  2.09878e+01  1.21202e+01  1.53391e+01
       H  2.18924e+01  1.24251e+01  1.58823e+01
       H  2.08836e+01  1.27291e+01  1.44308e+01
       H  2.01088e+01  1.22664e+01  1.59816e+01
       H  2.10668e+01  1.10602e+01  1.50621e+01
       C  4.64876e+00  2.89272e+01  3.46340e+01
       H  5.11817e+00  2.91155e+01  3.36591e+01
       H  4.13685e+00  2.98362e+01  3.49769e+01
       H  5.41997e+00  2.86459e+01  3.53625e+01
       H  3.92218e+00  2.81091e+01  3.45390e+01
       C  1.67009e+01  1.85968e+01  3.92828e+01
       H  1.77392e+01  1.82446e+01  3.92293e+01
       H  1.66557e+01  1.95114e+01  3.98894e+01
       H  1.60756e+01  1.78196e+01  3.97420e+01
       H  1.63348e+01  1.88106e+01  3.82697e+01
       C  6.65197e+00  4.08250e+01  3.81282e+01
       H  7.66583e+00  4.06306e+01  3.77534e+01
       H  6.70381e+00  4.15121e+01  3.89835e+01
       H  6.18924e+00  3.98797e+01  3.84441e+01
       H  6.04940e+00  4.12785e+01  3.73307e+01
       C  2.30369e+00  4.48597e+01  4.41208e+01
       H  1.51280e+00  4.42097e+01  4.37224e+01
       H  3.13892e+00  4.49032e+01  4.34087e+01
       H  2.65966e+00  4.44568e+01  4.50785e+01
       H  1.90373e+00  4.58712e+01  4.42717e+01
       C  8.91558e-01  2.88359e+01  3.45866e+01
       H  1.42415e+00  2.78761e+01  3.45673e+01
       H  1.59744e+00  2.96515e+01  3.43788e+01
       H  4.39397e-01  2.89853e+01  3.55767e+01
       H  1.04473e-01  2.88307e+01  3.38211e+01
       C  1.48674e+01  3.02739e+01  7.36398e+00
       H  1.57106e+01  3.09752e+01  7.31115e+00
       H  1.39695e+01  3.08127e+01  7.69444e+00
       H  1.50984e+01  2.94730e+01  8.07853e+00
       H  1.46909e+01  2.98375e+01  6.37170e+00
       C  1.27578e+01  1.59662e+01  2.60700e+01
       H  1.34528e+01  1.59307e+01  2.52205e+01
       H  1.28202e+01  1.69479e+01  2.65547e+01
       H  1.30220e+01  1.51799e+01  2.67886e+01
       H  1.17365e+01  1.57967e+01  2.57108e+01
       C  3.99773e+01  1.06757e+01  3.47639e+01
       H  3.94229e+01  9.90267e+00  3.53132e+01
       H  3.92974e+01  1.14946e+01  3.44958e+01
       H  4.04016e+01  1.02412e+01  3.38484e+01
       H  4.07877e+01  1.10641e+01  3.53951e+01
       C  4.32362e+01  3.06999e+01  3.81702e+01
       H  4.29063e+01  3.09480e+01  3.91873e+01
       H  4.35425e+01  3.16178e+01  3.76518e+01
       H  4.24091e+01  3.02281e+01  3.76224e+01
       H  4.40860e+01  3.00056e+01  3.82227e+01
       C  7.01853e+00  1.61600e+01  2.97305e+01
       H  7.37289e+00  1.61759e+01  3.07693e+01
       H  7.65207e+00  1.68131e+01  2.91151e+01
       H  5.98042e+00  1.65154e+01  2.96899e+01
       H  7.06982e+00  1.51348e+01  2.93438e+01
       C  8.57052e+00  4.27670e-01  1.32565e+01
       H  8.60395e+00  6.68244e-01  1.21857e+01
       H  7.70780e+00  9.27294e-01  1.37175e+01
       H  9.49587e+00  7.72441e-01  1.37369e+01
       H  8.47226e+00 -6.58282e-01  1.33816e+01
       C  3.18139e+01  3.18075e+01  4.53437e+01
       H  3.28078e+01  3.22299e+01  4.55462e+01
       H  3.19231e+01  3.07878e+01  4.49505e+01
       H  3.12946e+01  3.24313e+01  4.46038e+01
       H  3.12301e+01  3.17796e+01  4.62738e+01
       C  3.65864e+01  1.32121e+00  2.36859e+01
       H  3.72253e+01  4.28108e-01  2.36762e+01
       H  3.63838e+01  1.63480e+00  2.26534e+01
       H  3.70983e+01  2.13106e+00  2.42219e+01
       H  3.56392e+01  1.08975e+00  2.41911e+01
       C  2.33817e+01  3.32436e+01  6.30151e+00
       H  2.41786e+01  3.38834e+01  6.70229e+00
       H  2.24573e+01  3.34147e+01  6.86902e+00
       H  2.36780e+01  3.21901e+01  6.38957e+00
       H  2.32127e+01  3.34886e+01  5.24431e+00
       C  4.37689e+01  3.49323e+01  1.33466e+01
       H  4.38364e+01  3.38365e+01  1.33754e+01
       H  4.43293e+01  3.53537e+01  1.41916e+01
       H  4.27163e+01  3.52374e+01  1.34166e+01
       H  4.41961e+01  3.53027e+01  1.24050e+01
       C  4.57484e+01  8.59391e+00  2.36241e+01
       H  4.56248e+01  7.77572e+00  2.43465e+01
       H  4.59771e+01  9.52595e+00  2.41582e+01
       H  4.48206e+01  8.71654e+00  2.30515e+01
       H  4.65692e+01  8.35764e+00  2.29355e+01
       C  3.40687e+01  3.79817e+01  3.49886e+01
       H  3.34449e+01  3.77603e+01  3.58645e+01
       H  3.50181e+01  3.84184e+01  3.53196e+01
       H  3.35413e+01  3.86910e+01  3.43384e+01
       H  3.42664e+01  3.70558e+01  3.44334e+01
       C  2.00489e+01  3.73419e+01  2.27514e+01
       H  2.02263e+01  3.65360e+01  2.20264e+01
       H  2.05687e+01  3.71093e+01  2.36902e+01
       H  1.89707e+01  3.74340e+01  2.29399e+01
       H  2.04337e+01  3.82877e+01  2.23481e+01
       C  9.07429e+00  5.29015e+00  2.13875e+01
       H  9.75062e+00  4.53157e+00  2.09735e+01
       H  8.45551e+00  4.84034e+00  2.21746e+01
       H  8.42739e+00  5.68180e+00  2.05918e+01
       H  9.65961e+00  6.11439e+00  2.18143e+01
       C  1.53181e+01  3.98525e+01  2.99799e+01
       H  1.48080e+01  3.96446e+01  2.90302e+01
       H  1.45887e+01  4.02184e+01  3.07135e+01
       H  1.60951e+01  4.06112e+01  2.98209e+01
       H  1.57810e+01  3.89335e+01  3.03590e+01
       C  2.40311e+01  3.51145e+01  3.25787e+01
       H  2.46812e+01  3.42815e+01  3.22828e+01
       H  2.45505e+01  3.60652e+01  3.24055e+01
       H  2.37751e+01  3.50229e+01  3.36422e+01
       H  2.31130e+01  3.50908e+01  3.19775e+01
       C  3.46511e+01  4.14241e+01  3.53898e+01
       H  3.52043e+01  4.06721e+01  3.59671e+01
       H  3.51759e+01  4.23866e+01  3.54630e+01
       H  3.36356e+01  4.15263e+01  3.57947e+01
       H  3.46010e+01  4.11151e+01  3.43372e+01
       C  4.09781e+01  2.27729e+01  2.96204e+00
       H  4.00119e+01  2.23031e+01  3.18848e+00
       H  4.17875e+01  2.21811e+01  3.41067e+00
       H  4.09966e+01  2.37906e+01  3.37436e+00
       H  4.11173e+01  2.28178e+01  1.87379e+00
       C  1.69235e+01  2.73682e+01  6.07852e+00
       H  1.69736e+01  2.83207e+01  5.53407e+00
       H  1.58739e+01  2.70617e+01  6.18363e+00
       H  1.73690e+01  2.74916e+01  7.07420e+00
       H  1.74770e+01  2.65994e+01  5.52288e+00
       C  3.21808e+01  8.91040e+00  3.66439e+01
       H  3.31583e+01  9.41072e+00  3.66352e+01
       H  3.13814e+01  9.66057e+00  3.67140e+01
       H  3.21266e+01  8.23749e+00  3.75093e+01
       H  3.20584e+01  8.33385e+00  3.57177e+01
       C  6.43573e+00  1.35865e+01  2.07375e+01
       H  5.44431e+00  1.33068e+01  2.03605e+01
       H  6.98667e+00  1.26794e+01  2.10174e+01
       H  6.32447e+00  1.42321e+01  2.16180e+01
       H  6.98327e+00  1.41245e+01  1.99534e+01
       C  2.66335e+01  1.85165e+01  4.42747e+01
       H  2.60340e+01  1.79302e+01  4.49833e+01
       H  2.75520e+01  1.88594e+01  4.47679e+01
       H  2.60537e+01  1.93846e+01  4.39345e+01
       H  2.68957e+01  1.78890e+01  4.34128e+01
       C  3.53700e+01  6.76432e+00  1.84032e+01
       H  3.64085e+01  6.60899e+00  1.87255e+01
       H  3.48734e+01  7.45417e+00  1.90956e+01
       H  3.48399e+01  5.80485e+00  1.83986e+01
       H  3.53598e+01  7.19201e+00  1.73926e+01
       C  3.41030e+01  4.43506e+00  7.57934e+00
       H  3.38033e+01  5.48269e+00  7.71423e+00
       H  3.34837e+01  3.79039e+00  8.21666e+00
       H  3.51598e+01  4.31644e+00  7.85417e+00
       H  3.39638e+01  4.14589e+00  6.53005e+00
       C  7.44880e+00  1.27507e+01  4.41074e+00
       H  7.49803e+00  1.18299e+01  3.81372e+00
       H  8.31828e+00  1.28014e+01  5.08004e+00
       H  6.52662e+00  1.27495e+01  5.00688e+00
       H  7.44990e+00  1.36219e+01  3.74208e+00
       C  1.15915e+01  2.66794e+01  1.28617e+01
       H  1.14590e+01  2.74479e+01  1.36365e+01
       H  1.06648e+01  2.61021e+01  1.27511e+01
       H  1.24095e+01  2.60068e+01  1.31503e+01
       H  1.18321e+01  2.71613e+01  1.19056e+01
       C  1.17065e+01  2.24475e+01  3.76921e+01
       H  1.10167e+01  2.28110e+01  3.69191e+01
       H  1.22090e+01  2.33003e+01  3.81671e+01
       H  1.24571e+01  2.17905e+01  3.72332e+01
       H  1.11423e+01  2.18882e+01  3.84497e+01
       C  2.72176e+01  4.15518e+01  2.02733e+01
       H  2.79113e+01  4.07404e+01  2.05307e+01
       H  2.76088e+01  4.21058e+01  1.94095e+01
       H  2.71170e+01  4.22312e+01  2.11304e+01
       H  2.62370e+01  4.11271e+01  2.00226e+01
       C  2.66257e+01  1.74095e+01  9.62018e+00
       H  2.64772e+01  1.84240e+01  1.00140e+01
       H  2.73250e+01  1.74435e+01  8.77383e+00
       H  2.56625e+01  1.70037e+01  9.28316e+00
       H  2.70372e+01  1.67669e+01  1.04104e+01
       C  2.28413e+01  1.50375e+01  2.98654e+01
       H  2.35683e+01  1.48330e+01  3.06621e+01
       H  2.23574e+01  1.60063e+01  3.00489e+01
       H  2.20812e+01  1.42455e+01  2.98555e+01
       H  2.33575e+01  1.50636e+01  2.88964e+01
       C  3.87929e+01  4.08244e+01  2.43479e+01
       H  3.98456e+01  4.11352e+01  2.43142e+01
       H  3.87026e+01  3.98934e+01  2.49234e+01
       H  3.84290e+01  4.06572e+01  2.33255e+01
       H  3.81938e+01  4.16116e+01  2.48249e+01
       C  4.39418e+01  1.14385e+01  3.35461e+01
       H  4.29782e+01  1.18127e+01  3.39174e+01
       H  4.44461e+01  1.22294e+01  3.29741e+01
       H  4.37712e+01  1.05690e+01  3.28969e+01
       H  4.45715e+01  1.11439e+01  3.43963e+01
       C  4.02627e+01  3.16288e+01  3.57644e+01
       H  4.03205e+01  3.16524e+01  3.46680e+01
       H  3.93843e+01  3.21954e+01  3.60998e+01
       H  4.11714e+01  3.20785e+01  3.61875e+01
       H  4.01845e+01  3.05876e+01  3.61030e+01
       C  4.55323e+01  1.00154e+01  3.80142e+00
       H  4.60283e+01  9.08741e+00  4.11518e+00
       H  4.48775e+01  1.03701e+01  4.60898e+00
       H  4.49330e+01  9.82391e+00  2.90123e+00
       H  4.62899e+01  1.07798e+01  3.58096e+00
       C  2.77357e+01  2.35808e+01  4.11472e+01
       H  2.73717e+01  2.44820e+01  4.06369e+01
       H  2.69764e+01  2.32302e+01  4.18590e+01
       H  2.86645e+01  2.38112e+01  4.16859e+01
       H  2.79341e+01  2.27927e+01  4.04088e+01
       C  2.02894e+01  2.21329e+01  1.32861e+01
       H  2.04117e+01  2.31852e+01  1.29974e+01
       H  1.93137e+01  2.17696e+01  1.29367e+01
       H  2.03418e+01  2.20440e+01  1.43796e+01
       H  2.10883e+01  2.15323e+01  1.28309e+01
       C  1.43723e+00  4.13727e+01  9.41142e-01
       H  9.08966e-01  4.04151e+01  8.35704e-01
       H  1.20024e+00  4.18146e+01  1.91832e+00
       H  1.11929e+00  4.20564e+01  1.42788e-01
       H  2.52002e+00  4.12034e+01  8.69870e-01
       C  2.16692e+01  1.92140e+01  6.69592e-01
       H  2.10489e+01  2.00997e+01  4.77879e-01
       H  2.27121e+01  1.94340e+01  4.03040e-01
       H  2.13053e+01  1.83736e+01  6.26104e-02
       H  2.16105e+01  1.89489e+01  1.73395e+00
       C  2.21465e+01  2.36432e+01  2.11644e+01
       H  2.13600e+01  2.40842e+01  2.17899e+01
       H  2.21524e+01  2.41285e+01  2.01804e+01
       H  2.19566e+01  2.25684e+01  2.10474e+01
       H  2.31213e+01  2.37944e+01  2.16495e+01
       C  1.90237e+01  3.16671e+01  1.41421e+01
       H  1.90860e+01  3.07354e+01  1.47179e+01
       H  1.90028e+01  3.25226e+01  1.48293e+01
       H  1.81081e+01  3.16613e+01  1.35397e+01
       H  1.98943e+01  3.17469e+01  1.34788e+01
       C  3.55839e+01  3.48678e+01  1.16449e+01
       H  3.51228e+01  3.46477e+01  1.26168e+01
       H  3.63924e+01  3.55978e+01  1.17780e+01
       H  3.48256e+01  3.52823e+01  1.09673e+01
       H  3.59937e+01  3.39430e+01  1.12164e+01
       C  1.67113e+01  2.47485e+01  2.32935e+00
       H  1.61132e+01  2.41552e+01  1.62440e+00
       H  1.61538e+01  2.56503e+01  2.61549e+00
       H  1.76552e+01  2.50399e+01  1.84905e+00
       H  1.69241e+01  2.41504e+01  3.22543e+00
       C  2.77969e+01  4.49466e+01  3.93146e+01
       H  2.73645e+01  4.54886e+01  4.01667e+01
       H  2.86776e+01  4.54888e+01  3.89444e+01
       H  2.70503e+01  4.48688e+01  3.85125e+01
       H  2.80956e+01  4.39400e+01  3.96365e+01
       C  3.78944e+01  2.09075e+01  4.34351e+01
       H  3.77347e+01  1.98997e+01  4.38350e+01
       H  3.70201e+01  2.12157e+01  4.28471e+01
       H  3.87826e+01  2.09126e+01  4.27913e+01
       H  3.80441e+01  2.16034e+01  4.42700e+01
       C  1.13922e+00  1.24069e+01  2.40536e+01
       H  6.34182e-01  1.33791e+01  2.40015e+01
       H  2.22349e+00  1.25606e+01  2.40302e+01
       H  8.39411e-01  1.17917e+01  2.31962e+01
       H  8.63481e-01  1.18972e+01  2.49867e+01
       C  2.45197e+01  3.65345e+00  1.72635e+01
       H  2.43385e+01  4.41477e+00  1.80337e+01
       H  2.50347e+01  2.79320e+00  1.77123e+01
       H  2.51441e+01  4.07893e+00  1.64662e+01
       H  2.35600e+01  3.32692e+00  1.68412e+01
       C  4.45741e+01  1.80075e+01  4.53084e+01
       H  4.39759e+01  1.73216e+01  4.59233e+01
       H  4.39450e+01  1.88444e+01  4.49775e+01
       H  4.49600e+01  1.74713e+01  4.44308e+01
       H  4.54147e+01  1.83940e+01  4.59003e+01
       C  3.00743e+01  2.48870e+01  3.90027e+01
       H  2.99447e+01  2.54057e+01  3.99620e+01
       H  2.90916e+01  2.45797e+01  3.86228e+01
       H  3.07048e+01  2.40002e+01  3.91513e+01
       H  3.05527e+01  2.55626e+01  3.82812e+01
       C  3.60889e+01  1.19792e+01  2.96442e+01
       H  3.59161e+01  1.19030e+01  2.85629e+01
       H  3.71685e+01  1.20268e+01  2.98386e+01
       H  3.56636e+01  1.10977e+01  3.01390e+01
       H  3.56062e+01  1.28872e+01  3.00306e+01
       C  2.14531e+01  3.47600e+01  9.79034e+00
       H  2.05430e+01  3.52185e+01  1.02005e+01
       H  2.21150e+01  3.44594e+01  1.06124e+01
       H  2.19692e+01  3.54886e+01  9.15284e+00
       H  2.11790e+01  3.38793e+01  9.19419e+00
       C  3.38513e+01  1.70206e+01  4.53572e+01
       H  3.48354e+01  1.74919e+01  4.54843e+01
       H  3.30645e+01  1.77587e+01  4.55651e+01
       H  3.37530e+01  1.61773e+01  4.60542e+01
       H  3.37504e+01  1.66571e+01  4.43253e+01
       C  4.05836e+01  3.99925e+00  1.48349e+01
       H  4.14913e+01  4.51277e+00  1.51803e+01
       H  4.04579e+01  3.06158e+00  1.53932e+01
       H  4.06741e+01  3.77612e+00  1.37631e+01
       H  3.97110e+01  4.64525e+00  1.50027e+01
       C  2.31901e+01  1.94146e+01  2.44064e+01
       H  2.39521e+01  1.87157e+01  2.47767e+01
       H  2.35986e+01  1.99885e+01  2.35636e+01
       H  2.29032e+01  2.01033e+01  2.52122e+01
       H  2.23063e+01  1.88530e+01  2.40756e+01
       C  1.87295e+01  6.38787e+00  3.14625e+01
       H  1.87690e+01  6.83588e+00  3.04622e+01
       H  1.87201e+01  7.18181e+00  3.22177e+01
       H  1.96099e+01  5.75026e+00  3.16143e+01
       H  1.78188e+01  5.78262e+00  3.15601e+01
       C  2.20241e+01  2.15356e+01  1.77279e+01
       H  2.29507e+01  2.18247e+01  1.82403e+01
       H  2.20981e+01  2.17849e+01  1.66606e+01
       H  2.11766e+01  2.20746e+01  1.81720e+01
       H  2.18693e+01  2.04543e+01  1.78386e+01
       C  6.16550e+00  8.06428e+00  4.00263e+01
       H  5.59038e+00  8.98894e+00  4.01631e+01
       H  6.02835e+00  7.41466e+00  4.09014e+01
       H  7.22784e+00  8.31470e+00  3.99191e+01
       H  5.82192e+00  7.54476e+00  3.91219e+01
       C  6.78553e+00  1.53596e+01  2.62403e+01
       H  7.03555e+00  1.56508e+01  2.52123e+01
       H  6.18406e+00  1.61494e+01  2.67097e+01
       H  7.70838e+00  1.52081e+01  2.68162e+01
       H  6.21055e+00  1.44257e+01  2.62157e+01
       C  2.53363e+01  2.31341e+01  3.88787e+01
       H  2.63509e+01  2.30363e+01  3.84702e+01
       H  2.50674e+01  2.41981e+01  3.89420e+01
       H  2.52963e+01  2.26886e+01  3.98811e+01
       H  2.46275e+01  2.26147e+01  3.82198e+01
       C  4.43124e+01  4.04693e+01  4.55899e+01
       H  4.34585e+01  3.99816e+01  4.51004e+01
       H  4.42995e+01  4.15442e+01  4.53629e+01
       H  4.52477e+01  4.00279e+01  4.52180e+01
       H  4.42464e+01  4.03251e+01  4.66765e+01
       C  4.02825e+01  1.04215e+00  2.34652e+01
       H  4.03819e+01  1.09025e+00  2.45579e+01
       H  3.98434e+01  7.65100e-02  2.31799e+01
       H  4.12731e+01  1.14548e+00  2.30021e+01
       H  3.96307e+01  1.85690e+00  2.31218e+01
       C  4.58583e+01  3.53455e+01  1.67587e+01
       H  4.61514e+01  3.50018e+01  1.77599e+01
       H  4.47639e+01  3.53161e+01  1.66686e+01
       H  4.63056e+01  3.46893e+01  1.59998e+01
       H  4.62106e+01  3.63749e+01  1.66073e+01
       C  2.05627e+01  3.14319e+01  2.98112e+01
       H  2.06647e+01  3.25240e+01  2.97581e+01
       H  1.99791e+01  3.11615e+01  3.07011e+01
       H  2.15590e+01  3.09766e+01  2.98739e+01
       H  2.00498e+01  3.10659e+01  2.89122e+01
       C  2.58847e+01  2.64321e+01  2.46969e+01
       H  2.52697e+01  2.68928e+01  2.54815e+01
       H  2.66154e+01  2.71639e+01  2.43263e+01
       H  2.52391e+01  2.61085e+01  2.38705e+01
       H  2.64134e+01  2.55620e+01  2.51087e+01
       C  2.95280e+01  2.70373e+00  2.18493e+01
       H  2.99473e+01  3.43595e+00  2.25526e+01
       H  3.02871e+01  1.94466e+00  2.16169e+01
       H  2.92256e+01  3.21590e+00  2.09259e+01
       H  2.86521e+01  2.22060e+00  2.23036e+01
       C  2.64582e+01  7.01844e+00  1.67469e+01
       H  2.67270e+01  7.87752e+00  1.73770e+01
       H  2.72137e+01  6.22975e+00  1.68624e+01
       H  2.64147e+01  7.33524e+00  1.56963e+01
       H  2.54763e+01  6.63254e+00  1.70519e+01
       C  3.22747e+01  2.25155e+01  2.47535e+00
       H  3.16976e+01  2.15818e+01  2.51289e+00
       H  3.26957e+01  2.27259e+01  3.46755e+00
       H  3.16179e+01  2.33412e+01  2.17006e+00
       H  3.30906e+01  2.24117e+01  1.74751e+00
       C  1.26007e+01  2.11337e+01  3.13781e+01
       H  1.27635e+01  2.00500e+01  3.13116e+01
       H  1.20415e+01  2.14751e+01  3.04977e+01
       H  1.35695e+01  2.16478e+01  3.14198e+01
       H  1.20278e+01  2.13604e+01  3.22870e+01
       C  1.48808e+01  2.32952e+01  1.22896e+01
       H  1.39793e+01  2.39218e+01  1.22712e+01
       H  1.50172e+01  2.28785e+01  1.32960e+01
       H  1.57546e+01  2.39039e+01  1.20224e+01
       H  1.47727e+01  2.24745e+01  1.15673e+01
       C  2.36222e+01  4.86777e+00  3.44558e+01
       H  2.35084e+01  4.06461e+00  3.51958e+01
       H  2.26956e+01  4.96459e+00  3.38737e+01
       H  2.44556e+01  4.62903e+00  3.37812e+01
       H  2.38297e+01  5.81441e+00  3.49730e+01
       C  1.16876e+01  3.31818e+01  9.60280e+00
       H  1.17476e+01  3.21652e+01  1.00130e+01
       H  1.14295e+01  3.31316e+01  8.53689e+00
       H  1.26568e+01  3.36835e+01  9.72370e+00
       H  1.09147e+01  3.37463e+01  1.01411e+01
       C  2.52880e+01  1.07456e+01  7.65177e+00
       H  2.51652e+01  1.18084e+01  7.40312e+00
       H  2.47156e+01  1.01344e+01  6.94084e+00
       H  2.49194e+01  1.05615e+01  8.66972e+00
       H  2.63511e+01  1.04752e+01  7.59375e+00
       C  1.98259e+01  2.81074e+01  3.35666e+01
       H  2.00749e+01  2.87191e+01  3.44442e+01
       H  2.07178e+01  2.75545e+01  3.32420e+01
       H  1.94799e+01  2.87585e+01  3.27528e+01
       H  1.90306e+01  2.73986e+01  3.38313e+01
       C  2.19874e+01  7.52702e-01  4.12671e+01
       H  2.29489e+01  2.37530e-01  4.13950e+01
       H  2.21179e+01  1.60525e+00  4.05868e+01
       H  2.16309e+01  1.11242e+00  4.22417e+01
       H  2.12515e+01  5.61639e-02  4.08427e+01
       C  8.99540e+00  3.06291e+01  3.90197e+01
       H  8.89372e+00  2.96015e+01  3.86451e+01
       H  8.56886e+00  3.06973e+01  4.00293e+01
       H  8.46105e+00  3.13173e+01  3.83518e+01
       H  1.00585e+01  3.09019e+01  3.90538e+01
       C  3.07876e+01  3.17720e+01  2.75882e+01
       H  2.97501e+01  3.21122e+01  2.77068e+01
       H  3.10201e+01  3.16695e+01  2.65195e+01
       H  3.09144e+01  3.08010e+01  2.80862e+01
       H  3.14674e+01  3.25066e+01  2.80411e+01
       C  1.72921e+01  3.61861e+01  2.90373e+01
       H  1.78458e+01  3.66204e+01  2.81943e+01
       H  1.79789e+01  3.55998e+01  2.96631e+01
       H  1.64959e+01  3.55340e+01  2.86558e+01
       H  1.68510e+01  3.69912e+01  2.96380e+01
       C  1.40419e+01  3.45198e+00  5.49591e+00
       H  1.44309e+01  2.62202e+00  6.10135e+00
       H  1.30532e+01  3.74788e+00  5.87166e+00
       H  1.39543e+01  3.13179e+00  4.44878e+00
       H  1.47293e+01  4.30629e+00  5.56155e+00
       C  4.22002e+01  2.64751e+01  6.64575e-01
       H  4.29554e+01  2.72701e+01  6.05428e-01
       H  4.14723e+01  2.66057e+01 -1.47489e-01
       H  4.16847e+01  2.65305e+01  1.63290e+00
       H  4.26884e+01  2.54965e+01  5.64417e-01
       C  4.25894e+01  1.77211e+01  1.96647e+01